+ 0 0 1 cbr 1000 ------- 0 0.0 1.0 0 0
- 0 0 1 cbr 1000 ------- 0 0.0 1.0 0 0
+ 0.05 0 1 cbr 1000 ------- 0 0.0 1.0 1 1
- 0.05 0 1 cbr 1000 ------- 0 0.0 1.0 1 1
+ 0.1 0 1 cbr 1000 ------- 0 0.0 1.0 2 2
- 0.1 0 1 cbr 1000 ------- 0 0.0 1.0 2 2
r 0.108 0 1 cbr 1000 ------- 0 0.0 1.0 0 0
+ 0.15 0 1 cbr 1000 ------- 0 0.0 1.0 3 3
- 0.15 0 1 cbr 1000 ------- 0 0.0 1.0 3 3
r 0.158 0 1 cbr 1000 ------- 0 0.0 1.0 1 1
+ 0.2 0 1 cbr 1000 ------- 0 0.0 1.0 4 4
- 0.2 0 1 cbr 1000 ------- 0 0.0 1.0 4 4
r 0.208 0 1 cbr 1000 ------- 0 0.0 1.0 2 2
+ 0.25 0 1 cbr 1000 ------- 0 0.0 1.0 5 5
- 0.25 0 1 cbr 1000 ------- 0 0.0 1.0 5 5
r 0.258 0 1 cbr 1000 ------- 0 0.0 1.0 3 3
+ 0.3 0 1 cbr 1000 ------- 0 0.0 1.0 6 6
- 0.3 0 1 cbr 1000 ------- 0 0.0 1.0 6 6
r 0.308 0 1 cbr 1000 ------- 0 0.0 1.0 4 4
+ 0.35 0 1 cbr 1000 ------- 0 0.0 1.0 7 7
- 0.35 0 1 cbr 1000 ------- 0 0.0 1.0 7 7
r 0.358 0 1 cbr 1000 ------- 0 0.0 1.0 5 5
+ 0.4 0 1 cbr 1000 ------- 0 0.0 1.0 8 8
- 0.4 0 1 cbr 1000 ------- 0 0.0 1.0 8 8
r 0.408 0 1 cbr 1000 ------- 0 0.0 1.0 6 6
+ 0.45 0 1 cbr 1000 ------- 0 0.0 1.0 9 9
- 0.45 0 1 cbr 1000 ------- 0 0.0 1.0 9 9
r 0.458 0 1 cbr 1000 ------- 0 0.0 1.0 7 7
+ 0.5 0 1 cbr 1000 ------- 0 0.0 1.0 10 10
- 0.5 0 1 cbr 1000 ------- 0 0.0 1.0 10 10
r 0.508 0 1 cbr 1000 ------- 0 0.0 1.0 8 8
+ 0.55 0 1 cbr 1000 ------- 0 0.0 1.0 11 11
- 0.55 0 1 cbr 1000 ------- 0 0.0 1.0 11 11
r 0.558 0 1 cbr 1000 ------- 0 0.0 1.0 9 9
+ 0.6 0 1 cbr 1000 ------- 0 0.0 1.0 12 12
- 0.6 0 1 cbr 1000 ------- 0 0.0 1.0 12 12
r 0.608 0 1 cbr 1000 ------- 0 0.0 1.0 10 10
+ 0.65 0 1 cbr 1000 ------- 0 0.0 1.0 13 13
- 0.65 0 1 cbr 1000 ------- 0 0.0 1.0 13 13
r 0.658 0 1 cbr 1000 ------- 0 0.0 1.0 11 11
+ 0.7 0 1 cbr 1000 ------- 0 0.0 1.0 14 14
- 0.7 0 1 cbr 1000 ------- 0 0.0 1.0 14 14
r 0.708 0 1 cbr 1000 ------- 0 0.0 1.0 12 12
+ 0.75 0 1 cbr 1000 ------- 0 0.0 1.0 15 15
- 0.75 0 1 cbr 1000 ------- 0 0.0 1.0 15 15
r 0.758 0 1 cbr 1000 ------- 0 0.0 1.0 13 13
+ 0.8 0 1 cbr 1000 ------- 0 0.0 1.0 16 16
- 0.8 0 1 cbr 1000 ------- 0 0.0 1.0 16 16
r 0.808 0 1 cbr 1000 ------- 0 0.0 1.0 14 14
+ 0.85 0 1 cbr 1000 ------- 0 0.0 1.0 17 17
- 0.85 0 1 cbr 1000 ------- 0 0.0 1.0 17 17
r 0.858 0 1 cbr 1000 ------- 0 0.0 1.0 15 15
+ 0.9 0 1 cbr 1000 ------- 0 0.0 1.0 18 18
- 0.9 0 1 cbr 1000 ------- 0 0.0 1.0 18 18
r 0.908 0 1 cbr 1000 ------- 0 0.0 1.0 16 16
+ 0.95 0 1 cbr 1000 ------- 0 0.0 1.0 19 19
- 0.95 0 1 cbr 1000 ------- 0 0.0 1.0 19 19
r 0.958 0 1 cbr 1000 ------- 0 0.0 1.0 17 17
r 1.008 0 1 cbr 1000 ------- 0 0.0 1.0 18 18
r 1.058 0 1 cbr 1000 ------- 0 0.0 1.0 19 19
