+ 0 1 2 ping 1000 ------- 0 1.0 3.0 -1 0
- 0 1 2 ping 1000 ------- 0 1.0 3.0 -1 0
+ 0.005 1 2 ping 1000 ------- 0 1.0 3.0 -1 1
- 0.005 1 2 ping 1000 ------- 0 1.0 3.0 -1 1
r 0.007 1 2 ping 1000 ------- 0 1.0 3.0 -1 0
+ 0.007 2 3 ping 1000 ------- 0 1.0 3.0 -1 0
- 0.007 2 3 ping 1000 ------- 0 1.0 3.0 -1 0
+ 0.01 1 2 ping 1000 ------- 0 1.0 3.0 -1 2
- 0.01 1 2 ping 1000 ------- 0 1.0 3.0 -1 2
r 0.012 1 2 ping 1000 ------- 0 1.0 3.0 -1 1
+ 0.012 2 3 ping 1000 ------- 0 1.0 3.0 -1 1
+ 0.015 1 2 ping 1000 ------- 0 1.0 3.0 -1 3
- 0.015 1 2 ping 1000 ------- 0 1.0 3.0 -1 3
- 0.015 2 3 ping 1000 ------- 0 1.0 3.0 -1 1
r 0.017 1 2 ping 1000 ------- 0 1.0 3.0 -1 2
+ 0.017 2 3 ping 1000 ------- 0 1.0 3.0 -1 2
+ 0.02 1 2 ping 1000 ------- 0 1.0 3.0 -1 4
- 0.02 1 2 ping 1000 ------- 0 1.0 3.0 -1 4
r 0.022 1 2 ping 1000 ------- 0 1.0 3.0 -1 3
+ 0.022 2 3 ping 1000 ------- 0 1.0 3.0 -1 3
d 0.022 2 3 ping 1000 ------- 0 1.0 3.0 -1 3
- 0.023 2 3 ping 1000 ------- 0 1.0 3.0 -1 2
+ 0.025 1 2 ping 1000 ------- 0 1.0 3.0 -1 5
- 0.025 1 2 ping 1000 ------- 0 1.0 3.0 -1 5
r 0.027 1 2 ping 1000 ------- 0 1.0 3.0 -1 4
+ 0.027 2 3 ping 1000 ------- 0 1.0 3.0 -1 4
+ 0.03 1 2 ping 1000 ------- 0 1.0 3.0 -1 6
- 0.03 1 2 ping 1000 ------- 0 1.0 3.0 -1 6
- 0.031 2 3 ping 1000 ------- 0 1.0 3.0 -1 4
r 0.032 1 2 ping 1000 ------- 0 1.0 3.0 -1 5
+ 0.032 2 3 ping 1000 ------- 0 1.0 3.0 -1 5
+ 0.035 1 2 ping 1000 ------- 0 1.0 3.0 -1 7
- 0.035 1 2 ping 1000 ------- 0 1.0 3.0 -1 7
r 0.035 2 3 ping 1000 ------- 0 1.0 3.0 -1 0
+ 0.035 3 2 ping 64 ------- 0 3.0 1.0 -1 8
- 0.035 3 2 ping 64 ------- 0 3.0 1.0 -1 8
r 0.037 1 2 ping 1000 ------- 0 1.0 3.0 -1 6
+ 0.037 2 3 ping 1000 ------- 0 1.0 3.0 -1 6
d 0.037 2 3 ping 1000 ------- 0 1.0 3.0 -1 6
- 0.039 2 3 ping 1000 ------- 0 1.0 3.0 -1 5
+ 0.04 1 2 ping 1000 ------- 0 1.0 3.0 -1 9
- 0.04 1 2 ping 1000 ------- 0 1.0 3.0 -1 9
r 0.042 1 2 ping 1000 ------- 0 1.0 3.0 -1 7
+ 0.042 2 3 ping 1000 ------- 0 1.0 3.0 -1 7
r 0.043 2 3 ping 1000 ------- 0 1.0 3.0 -1 1
+ 0.043 3 2 ping 64 ------- 0 3.0 1.0 -1 10
- 0.043 3 2 ping 64 ------- 0 3.0 1.0 -1 10
+ 0.045 1 2 ping 1000 ------- 0 1.0 3.0 -1 11
- 0.045 1 2 ping 1000 ------- 0 1.0 3.0 -1 11
- 0.047 2 3 ping 1000 ------- 0 1.0 3.0 -1 7
r 0.047 1 2 ping 1000 ------- 0 1.0 3.0 -1 9
+ 0.047 2 3 ping 1000 ------- 0 1.0 3.0 -1 9
+ 0.05 1 2 ping 1000 ------- 0 1.0 3.0 -1 12
- 0.05 1 2 ping 1000 ------- 0 1.0 3.0 -1 12
r 0.051 2 3 ping 1000 ------- 0 1.0 3.0 -1 2
+ 0.051 3 2 ping 64 ------- 0 3.0 1.0 -1 13
- 0.051 3 2 ping 64 ------- 0 3.0 1.0 -1 13
r 0.052 1 2 ping 1000 ------- 0 1.0 3.0 -1 11
+ 0.052 2 3 ping 1000 ------- 0 1.0 3.0 -1 11
d 0.052 2 3 ping 1000 ------- 0 1.0 3.0 -1 11
+ 0.055 1 2 ping 1000 ------- 0 1.0 3.0 -1 14
- 0.055 1 2 ping 1000 ------- 0 1.0 3.0 -1 14
- 0.055 2 3 ping 1000 ------- 0 1.0 3.0 -1 9
r 0.055512 3 2 ping 64 ------- 0 3.0 1.0 -1 8
+ 0.055512 2 1 ping 64 ------- 0 3.0 1.0 -1 8
- 0.055512 2 1 ping 64 ------- 0 3.0 1.0 -1 8
r 0.057 1 2 ping 1000 ------- 0 1.0 3.0 -1 12
+ 0.057 2 3 ping 1000 ------- 0 1.0 3.0 -1 12
r 0.059 2 3 ping 1000 ------- 0 1.0 3.0 -1 4
+ 0.059 3 2 ping 64 ------- 0 3.0 1.0 -1 15
- 0.059 3 2 ping 64 ------- 0 3.0 1.0 -1 15
+ 0.06 1 2 ping 1000 ------- 0 1.0 3.0 -1 16
- 0.06 1 2 ping 1000 ------- 0 1.0 3.0 -1 16
r 0.06064 2 1 ping 64 ------- 0 3.0 1.0 -1 8
r 0.062 1 2 ping 1000 ------- 0 1.0 3.0 -1 14
+ 0.062 2 3 ping 1000 ------- 0 1.0 3.0 -1 14
d 0.062 2 3 ping 1000 ------- 0 1.0 3.0 -1 14
- 0.063 2 3 ping 1000 ------- 0 1.0 3.0 -1 12
r 0.063512 3 2 ping 64 ------- 0 3.0 1.0 -1 10
+ 0.063512 2 1 ping 64 ------- 0 3.0 1.0 -1 10
- 0.063512 2 1 ping 64 ------- 0 3.0 1.0 -1 10
+ 0.065 1 2 ping 1000 ------- 0 1.0 3.0 -1 17
- 0.065 1 2 ping 1000 ------- 0 1.0 3.0 -1 17
r 0.067 1 2 ping 1000 ------- 0 1.0 3.0 -1 16
+ 0.067 2 3 ping 1000 ------- 0 1.0 3.0 -1 16
r 0.067 2 3 ping 1000 ------- 0 1.0 3.0 -1 5
+ 0.067 3 2 ping 64 ------- 0 3.0 1.0 -1 18
- 0.067 3 2 ping 64 ------- 0 3.0 1.0 -1 18
r 0.06864 2 1 ping 64 ------- 0 3.0 1.0 -1 10
+ 0.07 1 2 ping 1000 ------- 0 1.0 3.0 -1 19
- 0.07 1 2 ping 1000 ------- 0 1.0 3.0 -1 19
- 0.071 2 3 ping 1000 ------- 0 1.0 3.0 -1 16
r 0.071512 3 2 ping 64 ------- 0 3.0 1.0 -1 13
+ 0.071512 2 1 ping 64 ------- 0 3.0 1.0 -1 13
- 0.071512 2 1 ping 64 ------- 0 3.0 1.0 -1 13
r 0.072 1 2 ping 1000 ------- 0 1.0 3.0 -1 17
+ 0.072 2 3 ping 1000 ------- 0 1.0 3.0 -1 17
+ 0.075 1 2 ping 1000 ------- 0 1.0 3.0 -1 20
- 0.075 1 2 ping 1000 ------- 0 1.0 3.0 -1 20
r 0.075 2 3 ping 1000 ------- 0 1.0 3.0 -1 7
+ 0.075 3 2 ping 64 ------- 0 3.0 1.0 -1 21
- 0.075 3 2 ping 64 ------- 0 3.0 1.0 -1 21
r 0.07664 2 1 ping 64 ------- 0 3.0 1.0 -1 13
r 0.077 1 2 ping 1000 ------- 0 1.0 3.0 -1 19
+ 0.077 2 3 ping 1000 ------- 0 1.0 3.0 -1 19
d 0.077 2 3 ping 1000 ------- 0 1.0 3.0 -1 19
- 0.079 2 3 ping 1000 ------- 0 1.0 3.0 -1 17
r 0.079512 3 2 ping 64 ------- 0 3.0 1.0 -1 15
+ 0.079512 2 1 ping 64 ------- 0 3.0 1.0 -1 15
- 0.079512 2 1 ping 64 ------- 0 3.0 1.0 -1 15
+ 0.08 1 2 ping 1000 ------- 0 1.0 3.0 -1 22
- 0.08 1 2 ping 1000 ------- 0 1.0 3.0 -1 22
r 0.082 1 2 ping 1000 ------- 0 1.0 3.0 -1 20
+ 0.082 2 3 ping 1000 ------- 0 1.0 3.0 -1 20
r 0.083 2 3 ping 1000 ------- 0 1.0 3.0 -1 9
+ 0.083 3 2 ping 64 ------- 0 3.0 1.0 -1 23
- 0.083 3 2 ping 64 ------- 0 3.0 1.0 -1 23
r 0.08464 2 1 ping 64 ------- 0 3.0 1.0 -1 15
+ 0.085 1 2 ping 1000 ------- 0 1.0 3.0 -1 24
- 0.085 1 2 ping 1000 ------- 0 1.0 3.0 -1 24
r 0.087 1 2 ping 1000 ------- 0 1.0 3.0 -1 22
+ 0.087 2 3 ping 1000 ------- 0 1.0 3.0 -1 22
d 0.087 2 3 ping 1000 ------- 0 1.0 3.0 -1 22
- 0.087 2 3 ping 1000 ------- 0 1.0 3.0 -1 20
r 0.087512 3 2 ping 64 ------- 0 3.0 1.0 -1 18
+ 0.087512 2 1 ping 64 ------- 0 3.0 1.0 -1 18
- 0.087512 2 1 ping 64 ------- 0 3.0 1.0 -1 18
+ 0.09 1 2 ping 1000 ------- 0 1.0 3.0 -1 25
- 0.09 1 2 ping 1000 ------- 0 1.0 3.0 -1 25
r 0.091 2 3 ping 1000 ------- 0 1.0 3.0 -1 12
+ 0.091 3 2 ping 64 ------- 0 3.0 1.0 -1 26
- 0.091 3 2 ping 64 ------- 0 3.0 1.0 -1 26
r 0.092 1 2 ping 1000 ------- 0 1.0 3.0 -1 24
+ 0.092 2 3 ping 1000 ------- 0 1.0 3.0 -1 24
r 0.09264 2 1 ping 64 ------- 0 3.0 1.0 -1 18
+ 0.095 1 2 ping 1000 ------- 0 1.0 3.0 -1 27
- 0.095 1 2 ping 1000 ------- 0 1.0 3.0 -1 27
- 0.095 2 3 ping 1000 ------- 0 1.0 3.0 -1 24
r 0.095512 3 2 ping 64 ------- 0 3.0 1.0 -1 21
+ 0.095512 2 1 ping 64 ------- 0 3.0 1.0 -1 21
- 0.095512 2 1 ping 64 ------- 0 3.0 1.0 -1 21
r 0.097 1 2 ping 1000 ------- 0 1.0 3.0 -1 25
+ 0.097 2 3 ping 1000 ------- 0 1.0 3.0 -1 25
r 0.099 2 3 ping 1000 ------- 0 1.0 3.0 -1 16
+ 0.099 3 2 ping 64 ------- 0 3.0 1.0 -1 28
- 0.099 3 2 ping 64 ------- 0 3.0 1.0 -1 28
r 0.10064 2 1 ping 64 ------- 0 3.0 1.0 -1 21
r 0.102 1 2 ping 1000 ------- 0 1.0 3.0 -1 27
+ 0.102 2 3 ping 1000 ------- 0 1.0 3.0 -1 27
d 0.102 2 3 ping 1000 ------- 0 1.0 3.0 -1 27
- 0.103 2 3 ping 1000 ------- 0 1.0 3.0 -1 25
r 0.103512 3 2 ping 64 ------- 0 3.0 1.0 -1 23
+ 0.103512 2 1 ping 64 ------- 0 3.0 1.0 -1 23
- 0.103512 2 1 ping 64 ------- 0 3.0 1.0 -1 23
r 0.107 2 3 ping 1000 ------- 0 1.0 3.0 -1 17
+ 0.107 3 2 ping 64 ------- 0 3.0 1.0 -1 29
- 0.107 3 2 ping 64 ------- 0 3.0 1.0 -1 29
r 0.10864 2 1 ping 64 ------- 0 3.0 1.0 -1 23
r 0.111512 3 2 ping 64 ------- 0 3.0 1.0 -1 26
+ 0.111512 2 1 ping 64 ------- 0 3.0 1.0 -1 26
- 0.111512 2 1 ping 64 ------- 0 3.0 1.0 -1 26
r 0.115 2 3 ping 1000 ------- 0 1.0 3.0 -1 20
+ 0.115 3 2 ping 64 ------- 0 3.0 1.0 -1 30
- 0.115 3 2 ping 64 ------- 0 3.0 1.0 -1 30
r 0.11664 2 1 ping 64 ------- 0 3.0 1.0 -1 26
r 0.119512 3 2 ping 64 ------- 0 3.0 1.0 -1 28
+ 0.119512 2 1 ping 64 ------- 0 3.0 1.0 -1 28
- 0.119512 2 1 ping 64 ------- 0 3.0 1.0 -1 28
r 0.123 2 3 ping 1000 ------- 0 1.0 3.0 -1 24
+ 0.123 3 2 ping 64 ------- 0 3.0 1.0 -1 31
- 0.123 3 2 ping 64 ------- 0 3.0 1.0 -1 31
r 0.12464 2 1 ping 64 ------- 0 3.0 1.0 -1 28
r 0.127512 3 2 ping 64 ------- 0 3.0 1.0 -1 29
+ 0.127512 2 1 ping 64 ------- 0 3.0 1.0 -1 29
- 0.127512 2 1 ping 64 ------- 0 3.0 1.0 -1 29
r 0.131 2 3 ping 1000 ------- 0 1.0 3.0 -1 25
+ 0.131 3 2 ping 64 ------- 0 3.0 1.0 -1 32
- 0.131 3 2 ping 64 ------- 0 3.0 1.0 -1 32
r 0.13264 2 1 ping 64 ------- 0 3.0 1.0 -1 29
r 0.135512 3 2 ping 64 ------- 0 3.0 1.0 -1 30
+ 0.135512 2 1 ping 64 ------- 0 3.0 1.0 -1 30
- 0.135512 2 1 ping 64 ------- 0 3.0 1.0 -1 30
r 0.14064 2 1 ping 64 ------- 0 3.0 1.0 -1 30
r 0.143512 3 2 ping 64 ------- 0 3.0 1.0 -1 31
+ 0.143512 2 1 ping 64 ------- 0 3.0 1.0 -1 31
- 0.143512 2 1 ping 64 ------- 0 3.0 1.0 -1 31
r 0.14864 2 1 ping 64 ------- 0 3.0 1.0 -1 31
r 0.151512 3 2 ping 64 ------- 0 3.0 1.0 -1 32
+ 0.151512 2 1 ping 64 ------- 0 3.0 1.0 -1 32
- 0.151512 2 1 ping 64 ------- 0 3.0 1.0 -1 32
r 0.15664 2 1 ping 64 ------- 0 3.0 1.0 -1 32
