+ 1 0 2 tcp 40 ------- 0 0.0 3.0 0 0
- 1 0 2 tcp 40 ------- 0 0.0 3.0 0 0
r 1.050107 0 2 tcp 40 ------- 0 0.0 3.0 0 0
+ 1.050107 2 1 tcp 40 ------- 0 0.0 3.0 0 0
- 1.050107 2 1 tcp 40 ------- 0 0.0 3.0 0 0
r 1.20094 2 1 tcp 40 ------- 0 0.0 3.0 0 0
+ 1.20094 1 3 tcp 40 ------- 0 0.0 3.0 0 0
- 1.20094 1 3 tcp 40 ------- 0 0.0 3.0 0 0
r 1.211047 1 3 tcp 40 ------- 0 0.0 3.0 0 0
+ 1.211047 3 1 ack 40 ------- 0 3.0 0.0 0 1
- 1.211047 3 1 ack 40 ------- 0 3.0 0.0 0 1
r 1.221153 3 1 ack 40 ------- 0 3.0 0.0 0 1
+ 1.221153 1 2 ack 40 ------- 0 3.0 0.0 0 1
- 1.221153 1 2 ack 40 ------- 0 3.0 0.0 0 1
r 1.376153 1 2 ack 40 ------- 0 3.0 0.0 0 1
+ 1.376153 2 0 ack 40 ------- 0 3.0 0.0 0 1
- 1.376153 2 0 ack 40 ------- 0 3.0 0.0 0 1
r 1.42626 2 0 ack 40 ------- 0 3.0 0.0 0 1
+ 1.42626 0 2 tcp 1500 ------- 0 0.0 3.0 1 2
- 1.42626 0 2 tcp 1500 ------- 0 0.0 3.0 1 2
+ 1.42626 0 2 tcp 1500 ------- 0 0.0 3.0 2 3
- 1.43026 0 2 tcp 1500 ------- 0 0.0 3.0 2 3
r 1.48026 0 2 tcp 1500 ------- 0 0.0 3.0 1 2
+ 1.48026 2 1 tcp 1500 ------- 0 0.0 3.0 1 2
- 1.48026 2 1 tcp 1500 ------- 0 0.0 3.0 1 2
r 1.48426 0 2 tcp 1500 ------- 0 0.0 3.0 2 3
+ 1.48426 2 1 tcp 1500 ------- 0 0.0 3.0 2 3
- 1.51151 2 1 tcp 1500 ------- 0 0.0 3.0 2 3
r 1.66151 2 1 tcp 1500 ------- 0 0.0 3.0 1 2
+ 1.66151 1 3 tcp 1500 ------- 0 0.0 3.0 1 2
- 1.66151 1 3 tcp 1500 ------- 0 0.0 3.0 1 2
r 1.67551 1 3 tcp 1500 ------- 0 0.0 3.0 1 2
+ 1.67551 3 1 ack 40 ------- 0 3.0 0.0 1 4
- 1.67551 3 1 ack 40 ------- 0 3.0 0.0 1 4
r 1.685617 3 1 ack 40 ------- 0 3.0 0.0 1 4
+ 1.685617 1 2 ack 40 ------- 0 3.0 0.0 1 4
- 1.685617 1 2 ack 40 ------- 0 3.0 0.0 1 4
r 1.69276 2 1 tcp 1500 ------- 0 0.0 3.0 2 3
+ 1.69276 1 3 tcp 1500 ------- 0 0.0 3.0 2 3
- 1.69276 1 3 tcp 1500 ------- 0 0.0 3.0 2 3
r 1.70676 1 3 tcp 1500 ------- 0 0.0 3.0 2 3
+ 1.70676 3 1 ack 40 ------- 0 3.0 0.0 2 5
- 1.70676 3 1 ack 40 ------- 0 3.0 0.0 2 5
r 1.716867 3 1 ack 40 ------- 0 3.0 0.0 2 5
+ 1.716867 1 2 ack 40 ------- 0 3.0 0.0 2 5
- 1.716867 1 2 ack 40 ------- 0 3.0 0.0 2 5
r 1.840617 1 2 ack 40 ------- 0 3.0 0.0 1 4
+ 1.840617 2 0 ack 40 ------- 0 3.0 0.0 1 4
- 1.840617 2 0 ack 40 ------- 0 3.0 0.0 1 4
r 1.871867 1 2 ack 40 ------- 0 3.0 0.0 2 5
+ 1.871867 2 0 ack 40 ------- 0 3.0 0.0 2 5
- 1.871867 2 0 ack 40 ------- 0 3.0 0.0 2 5
r 1.890723 2 0 ack 40 ------- 0 3.0 0.0 1 4
+ 1.890723 0 2 tcp 1500 ------- 0 0.0 3.0 3 6
- 1.890723 0 2 tcp 1500 ------- 0 0.0 3.0 3 6
+ 1.890723 0 2 tcp 1500 ------- 0 0.0 3.0 4 7
- 1.894723 0 2 tcp 1500 ------- 0 0.0 3.0 4 7
r 1.921973 2 0 ack 40 ------- 0 3.0 0.0 2 5
+ 1.921973 0 2 tcp 1500 ------- 0 0.0 3.0 5 8
- 1.921973 0 2 tcp 1500 ------- 0 0.0 3.0 5 8
+ 1.921973 0 2 tcp 1500 ------- 0 0.0 3.0 6 9
- 1.925973 0 2 tcp 1500 ------- 0 0.0 3.0 6 9
r 1.944723 0 2 tcp 1500 ------- 0 0.0 3.0 3 6
+ 1.944723 2 1 tcp 1500 ------- 0 0.0 3.0 3 6
- 1.944723 2 1 tcp 1500 ------- 0 0.0 3.0 3 6
r 1.948723 0 2 tcp 1500 ------- 0 0.0 3.0 4 7
+ 1.948723 2 1 tcp 1500 ------- 0 0.0 3.0 4 7
r 1.975973 0 2 tcp 1500 ------- 0 0.0 3.0 5 8
+ 1.975973 2 1 tcp 1500 ------- 0 0.0 3.0 5 8
- 1.975973 2 1 tcp 1500 ------- 0 0.0 3.0 4 7
r 1.979973 0 2 tcp 1500 ------- 0 0.0 3.0 6 9
+ 1.979973 2 1 tcp 1500 ------- 0 0.0 3.0 6 9
- 2.007223 2 1 tcp 1500 ------- 0 0.0 3.0 5 8
- 2.038473 2 1 tcp 1500 ------- 0 0.0 3.0 6 9
r 2.125973 2 1 tcp 1500 ------- 0 0.0 3.0 3 6
+ 2.125973 1 3 tcp 1500 ------- 0 0.0 3.0 3 6
- 2.125973 1 3 tcp 1500 ------- 0 0.0 3.0 3 6
r 2.139973 1 3 tcp 1500 ------- 0 0.0 3.0 3 6
+ 2.139973 3 1 ack 40 ------- 0 3.0 0.0 3 10
- 2.139973 3 1 ack 40 ------- 0 3.0 0.0 3 10
r 2.15008 3 1 ack 40 ------- 0 3.0 0.0 3 10
+ 2.15008 1 2 ack 40 ------- 0 3.0 0.0 3 10
- 2.15008 1 2 ack 40 ------- 0 3.0 0.0 3 10
r 2.157223 2 1 tcp 1500 ------- 0 0.0 3.0 4 7
+ 2.157223 1 3 tcp 1500 ------- 0 0.0 3.0 4 7
- 2.157223 1 3 tcp 1500 ------- 0 0.0 3.0 4 7
r 2.171223 1 3 tcp 1500 ------- 0 0.0 3.0 4 7
+ 2.171223 3 1 ack 40 ------- 0 3.0 0.0 4 11
- 2.171223 3 1 ack 40 ------- 0 3.0 0.0 4 11
r 2.18133 3 1 ack 40 ------- 0 3.0 0.0 4 11
+ 2.18133 1 2 ack 40 ------- 0 3.0 0.0 4 11
- 2.18133 1 2 ack 40 ------- 0 3.0 0.0 4 11
r 2.188473 2 1 tcp 1500 ------- 0 0.0 3.0 5 8
+ 2.188473 1 3 tcp 1500 ------- 0 0.0 3.0 5 8
- 2.188473 1 3 tcp 1500 ------- 0 0.0 3.0 5 8
r 2.202473 1 3 tcp 1500 ------- 0 0.0 3.0 5 8
+ 2.202473 3 1 ack 40 ------- 0 3.0 0.0 5 12
- 2.202473 3 1 ack 40 ------- 0 3.0 0.0 5 12
r 2.21258 3 1 ack 40 ------- 0 3.0 0.0 5 12
+ 2.21258 1 2 ack 40 ------- 0 3.0 0.0 5 12
- 2.21258 1 2 ack 40 ------- 0 3.0 0.0 5 12
r 2.219723 2 1 tcp 1500 ------- 0 0.0 3.0 6 9
+ 2.219723 1 3 tcp 1500 ------- 0 0.0 3.0 6 9
- 2.219723 1 3 tcp 1500 ------- 0 0.0 3.0 6 9
r 2.233723 1 3 tcp 1500 ------- 0 0.0 3.0 6 9
+ 2.233723 3 1 ack 40 ------- 0 3.0 0.0 6 13
- 2.233723 3 1 ack 40 ------- 0 3.0 0.0 6 13
r 2.24383 3 1 ack 40 ------- 0 3.0 0.0 6 13
+ 2.24383 1 2 ack 40 ------- 0 3.0 0.0 6 13
- 2.24383 1 2 ack 40 ------- 0 3.0 0.0 6 13
r 2.30508 1 2 ack 40 ------- 0 3.0 0.0 3 10
+ 2.30508 2 0 ack 40 ------- 0 3.0 0.0 3 10
- 2.30508 2 0 ack 40 ------- 0 3.0 0.0 3 10
r 2.33633 1 2 ack 40 ------- 0 3.0 0.0 4 11
+ 2.33633 2 0 ack 40 ------- 0 3.0 0.0 4 11
- 2.33633 2 0 ack 40 ------- 0 3.0 0.0 4 11
r 2.355187 2 0 ack 40 ------- 0 3.0 0.0 3 10
+ 2.355187 0 2 tcp 1500 ------- 0 0.0 3.0 7 14
- 2.355187 0 2 tcp 1500 ------- 0 0.0 3.0 7 14
+ 2.355187 0 2 tcp 1500 ------- 0 0.0 3.0 8 15
- 2.359187 0 2 tcp 1500 ------- 0 0.0 3.0 8 15
r 2.36758 1 2 ack 40 ------- 0 3.0 0.0 5 12
+ 2.36758 2 0 ack 40 ------- 0 3.0 0.0 5 12
- 2.36758 2 0 ack 40 ------- 0 3.0 0.0 5 12
r 2.386437 2 0 ack 40 ------- 0 3.0 0.0 4 11
+ 2.386437 0 2 tcp 1500 ------- 0 0.0 3.0 9 16
- 2.386437 0 2 tcp 1500 ------- 0 0.0 3.0 9 16
+ 2.386437 0 2 tcp 1500 ------- 0 0.0 3.0 10 17
- 2.390437 0 2 tcp 1500 ------- 0 0.0 3.0 10 17
r 2.39883 1 2 ack 40 ------- 0 3.0 0.0 6 13
+ 2.39883 2 0 ack 40 ------- 0 3.0 0.0 6 13
- 2.39883 2 0 ack 40 ------- 0 3.0 0.0 6 13
r 2.409187 0 2 tcp 1500 ------- 0 0.0 3.0 7 14
+ 2.409187 2 1 tcp 1500 ------- 0 0.0 3.0 7 14
- 2.409187 2 1 tcp 1500 ------- 0 0.0 3.0 7 14
r 2.413187 0 2 tcp 1500 ------- 0 0.0 3.0 8 15
+ 2.413187 2 1 tcp 1500 ------- 0 0.0 3.0 8 15
r 2.417687 2 0 ack 40 ------- 0 3.0 0.0 5 12
+ 2.417687 0 2 tcp 1500 ------- 0 0.0 3.0 11 18
- 2.417687 0 2 tcp 1500 ------- 0 0.0 3.0 11 18
+ 2.417687 0 2 tcp 1500 ------- 0 0.0 3.0 12 19
- 2.421687 0 2 tcp 1500 ------- 0 0.0 3.0 12 19
r 2.440437 0 2 tcp 1500 ------- 0 0.0 3.0 9 16
+ 2.440437 2 1 tcp 1500 ------- 0 0.0 3.0 9 16
- 2.440437 2 1 tcp 1500 ------- 0 0.0 3.0 8 15
r 2.444437 0 2 tcp 1500 ------- 0 0.0 3.0 10 17
+ 2.444437 2 1 tcp 1500 ------- 0 0.0 3.0 10 17
r 2.448937 2 0 ack 40 ------- 0 3.0 0.0 6 13
+ 2.448937 0 2 tcp 1500 ------- 0 0.0 3.0 13 20
- 2.448937 0 2 tcp 1500 ------- 0 0.0 3.0 13 20
+ 2.448937 0 2 tcp 1500 ------- 0 0.0 3.0 14 21
- 2.452937 0 2 tcp 1500 ------- 0 0.0 3.0 14 21
r 2.471687 0 2 tcp 1500 ------- 0 0.0 3.0 11 18
+ 2.471687 2 1 tcp 1500 ------- 0 0.0 3.0 11 18
- 2.471687 2 1 tcp 1500 ------- 0 0.0 3.0 9 16
r 2.475687 0 2 tcp 1500 ------- 0 0.0 3.0 12 19
+ 2.475687 2 1 tcp 1500 ------- 0 0.0 3.0 12 19
r 2.502937 0 2 tcp 1500 ------- 0 0.0 3.0 13 20
+ 2.502937 2 1 tcp 1500 ------- 0 0.0 3.0 13 20
- 2.502937 2 1 tcp 1500 ------- 0 0.0 3.0 10 17
r 2.506937 0 2 tcp 1500 ------- 0 0.0 3.0 14 21
+ 2.506937 2 1 tcp 1500 ------- 0 0.0 3.0 14 21
- 2.534187 2 1 tcp 1500 ------- 0 0.0 3.0 11 18
- 2.565437 2 1 tcp 1500 ------- 0 0.0 3.0 12 19
r 2.590437 2 1 tcp 1500 ------- 0 0.0 3.0 7 14
+ 2.590437 1 3 tcp 1500 ------- 0 0.0 3.0 7 14
- 2.590437 1 3 tcp 1500 ------- 0 0.0 3.0 7 14
- 2.596687 2 1 tcp 1500 ------- 0 0.0 3.0 13 20
r 2.604437 1 3 tcp 1500 ------- 0 0.0 3.0 7 14
+ 2.604437 3 1 ack 40 ------- 0 3.0 0.0 7 22
- 2.604437 3 1 ack 40 ------- 0 3.0 0.0 7 22
r 2.614543 3 1 ack 40 ------- 0 3.0 0.0 7 22
+ 2.614543 1 2 ack 40 ------- 0 3.0 0.0 7 22
- 2.614543 1 2 ack 40 ------- 0 3.0 0.0 7 22
r 2.621687 2 1 tcp 1500 ------- 0 0.0 3.0 8 15
+ 2.621687 1 3 tcp 1500 ------- 0 0.0 3.0 8 15
- 2.621687 1 3 tcp 1500 ------- 0 0.0 3.0 8 15
- 2.627937 2 1 tcp 1500 ------- 0 0.0 3.0 14 21
r 2.635687 1 3 tcp 1500 ------- 0 0.0 3.0 8 15
+ 2.635687 3 1 ack 40 ------- 0 3.0 0.0 8 23
- 2.635687 3 1 ack 40 ------- 0 3.0 0.0 8 23
r 2.645793 3 1 ack 40 ------- 0 3.0 0.0 8 23
+ 2.645793 1 2 ack 40 ------- 0 3.0 0.0 8 23
- 2.645793 1 2 ack 40 ------- 0 3.0 0.0 8 23
r 2.652937 2 1 tcp 1500 ------- 0 0.0 3.0 9 16
+ 2.652937 1 3 tcp 1500 ------- 0 0.0 3.0 9 16
- 2.652937 1 3 tcp 1500 ------- 0 0.0 3.0 9 16
r 2.666937 1 3 tcp 1500 ------- 0 0.0 3.0 9 16
+ 2.666937 3 1 ack 40 ------- 0 3.0 0.0 9 24
- 2.666937 3 1 ack 40 ------- 0 3.0 0.0 9 24
r 2.677043 3 1 ack 40 ------- 0 3.0 0.0 9 24
+ 2.677043 1 2 ack 40 ------- 0 3.0 0.0 9 24
- 2.677043 1 2 ack 40 ------- 0 3.0 0.0 9 24
r 2.684187 2 1 tcp 1500 ------- 0 0.0 3.0 10 17
+ 2.684187 1 3 tcp 1500 ------- 0 0.0 3.0 10 17
- 2.684187 1 3 tcp 1500 ------- 0 0.0 3.0 10 17
r 2.698187 1 3 tcp 1500 ------- 0 0.0 3.0 10 17
+ 2.698187 3 1 ack 40 ------- 0 3.0 0.0 10 25
- 2.698187 3 1 ack 40 ------- 0 3.0 0.0 10 25
r 2.708293 3 1 ack 40 ------- 0 3.0 0.0 10 25
+ 2.708293 1 2 ack 40 ------- 0 3.0 0.0 10 25
- 2.708293 1 2 ack 40 ------- 0 3.0 0.0 10 25
r 2.715437 2 1 tcp 1500 ------- 0 0.0 3.0 11 18
+ 2.715437 1 3 tcp 1500 ------- 0 0.0 3.0 11 18
- 2.715437 1 3 tcp 1500 ------- 0 0.0 3.0 11 18
r 2.729437 1 3 tcp 1500 ------- 0 0.0 3.0 11 18
+ 2.729437 3 1 ack 40 ------- 0 3.0 0.0 11 26
- 2.729437 3 1 ack 40 ------- 0 3.0 0.0 11 26
r 2.739543 3 1 ack 40 ------- 0 3.0 0.0 11 26
+ 2.739543 1 2 ack 40 ------- 0 3.0 0.0 11 26
- 2.739543 1 2 ack 40 ------- 0 3.0 0.0 11 26
r 2.746687 2 1 tcp 1500 ------- 0 0.0 3.0 12 19
+ 2.746687 1 3 tcp 1500 ------- 0 0.0 3.0 12 19
- 2.746687 1 3 tcp 1500 ------- 0 0.0 3.0 12 19
r 2.760687 1 3 tcp 1500 ------- 0 0.0 3.0 12 19
+ 2.760687 3 1 ack 40 ------- 0 3.0 0.0 12 27
- 2.760687 3 1 ack 40 ------- 0 3.0 0.0 12 27
r 2.769543 1 2 ack 40 ------- 0 3.0 0.0 7 22
+ 2.769543 2 0 ack 40 ------- 0 3.0 0.0 7 22
- 2.769543 2 0 ack 40 ------- 0 3.0 0.0 7 22
r 2.770793 3 1 ack 40 ------- 0 3.0 0.0 12 27
+ 2.770793 1 2 ack 40 ------- 0 3.0 0.0 12 27
- 2.770793 1 2 ack 40 ------- 0 3.0 0.0 12 27
r 2.777937 2 1 tcp 1500 ------- 0 0.0 3.0 13 20
+ 2.777937 1 3 tcp 1500 ------- 0 0.0 3.0 13 20
- 2.777937 1 3 tcp 1500 ------- 0 0.0 3.0 13 20
r 2.791937 1 3 tcp 1500 ------- 0 0.0 3.0 13 20
+ 2.791937 3 1 ack 40 ------- 0 3.0 0.0 13 28
- 2.791937 3 1 ack 40 ------- 0 3.0 0.0 13 28
r 2.800793 1 2 ack 40 ------- 0 3.0 0.0 8 23
+ 2.800793 2 0 ack 40 ------- 0 3.0 0.0 8 23
- 2.800793 2 0 ack 40 ------- 0 3.0 0.0 8 23
r 2.802043 3 1 ack 40 ------- 0 3.0 0.0 13 28
+ 2.802043 1 2 ack 40 ------- 0 3.0 0.0 13 28
- 2.802043 1 2 ack 40 ------- 0 3.0 0.0 13 28
r 2.809187 2 1 tcp 1500 ------- 0 0.0 3.0 14 21
+ 2.809187 1 3 tcp 1500 ------- 0 0.0 3.0 14 21
- 2.809187 1 3 tcp 1500 ------- 0 0.0 3.0 14 21
r 2.81965 2 0 ack 40 ------- 0 3.0 0.0 7 22
+ 2.81965 0 2 tcp 1500 ------- 0 0.0 3.0 15 29
- 2.81965 0 2 tcp 1500 ------- 0 0.0 3.0 15 29
+ 2.81965 0 2 tcp 1500 ------- 0 0.0 3.0 16 30
r 2.823187 1 3 tcp 1500 ------- 0 0.0 3.0 14 21
+ 2.823187 3 1 ack 40 ------- 0 3.0 0.0 14 31
- 2.823187 3 1 ack 40 ------- 0 3.0 0.0 14 31
- 2.82365 0 2 tcp 1500 ------- 0 0.0 3.0 16 30
r 2.832043 1 2 ack 40 ------- 0 3.0 0.0 9 24
+ 2.832043 2 0 ack 40 ------- 0 3.0 0.0 9 24
- 2.832043 2 0 ack 40 ------- 0 3.0 0.0 9 24
r 2.833293 3 1 ack 40 ------- 0 3.0 0.0 14 31
+ 2.833293 1 2 ack 40 ------- 0 3.0 0.0 14 31
- 2.833293 1 2 ack 40 ------- 0 3.0 0.0 14 31
r 2.8509 2 0 ack 40 ------- 0 3.0 0.0 8 23
+ 2.8509 0 2 tcp 1500 ------- 0 0.0 3.0 17 32
- 2.8509 0 2 tcp 1500 ------- 0 0.0 3.0 17 32
+ 2.8509 0 2 tcp 1500 ------- 0 0.0 3.0 18 33
- 2.8549 0 2 tcp 1500 ------- 0 0.0 3.0 18 33
r 2.863293 1 2 ack 40 ------- 0 3.0 0.0 10 25
+ 2.863293 2 0 ack 40 ------- 0 3.0 0.0 10 25
- 2.863293 2 0 ack 40 ------- 0 3.0 0.0 10 25
r 2.87365 0 2 tcp 1500 ------- 0 0.0 3.0 15 29
+ 2.87365 2 1 tcp 1500 ------- 0 0.0 3.0 15 29
- 2.87365 2 1 tcp 1500 ------- 0 0.0 3.0 15 29
r 2.87765 0 2 tcp 1500 ------- 0 0.0 3.0 16 30
+ 2.87765 2 1 tcp 1500 ------- 0 0.0 3.0 16 30
r 2.88215 2 0 ack 40 ------- 0 3.0 0.0 9 24
+ 2.88215 0 2 tcp 1500 ------- 0 0.0 3.0 19 34
- 2.88215 0 2 tcp 1500 ------- 0 0.0 3.0 19 34
+ 2.88215 0 2 tcp 1500 ------- 0 0.0 3.0 20 35
- 2.88615 0 2 tcp 1500 ------- 0 0.0 3.0 20 35
r 2.894543 1 2 ack 40 ------- 0 3.0 0.0 11 26
+ 2.894543 2 0 ack 40 ------- 0 3.0 0.0 11 26
- 2.894543 2 0 ack 40 ------- 0 3.0 0.0 11 26
r 2.9049 0 2 tcp 1500 ------- 0 0.0 3.0 17 32
+ 2.9049 2 1 tcp 1500 ------- 0 0.0 3.0 17 32
- 2.9049 2 1 tcp 1500 ------- 0 0.0 3.0 16 30
r 2.9089 0 2 tcp 1500 ------- 0 0.0 3.0 18 33
+ 2.9089 2 1 tcp 1500 ------- 0 0.0 3.0 18 33
r 2.9134 2 0 ack 40 ------- 0 3.0 0.0 10 25
+ 2.9134 0 2 tcp 1500 ------- 0 0.0 3.0 21 36
- 2.9134 0 2 tcp 1500 ------- 0 0.0 3.0 21 36
+ 2.9134 0 2 tcp 1500 ------- 0 0.0 3.0 22 37
- 2.9174 0 2 tcp 1500 ------- 0 0.0 3.0 22 37
r 2.925793 1 2 ack 40 ------- 0 3.0 0.0 12 27
+ 2.925793 2 0 ack 40 ------- 0 3.0 0.0 12 27
- 2.925793 2 0 ack 40 ------- 0 3.0 0.0 12 27
r 2.93615 0 2 tcp 1500 ------- 0 0.0 3.0 19 34
+ 2.93615 2 1 tcp 1500 ------- 0 0.0 3.0 19 34
- 2.93615 2 1 tcp 1500 ------- 0 0.0 3.0 17 32
r 2.94015 0 2 tcp 1500 ------- 0 0.0 3.0 20 35
+ 2.94015 2 1 tcp 1500 ------- 0 0.0 3.0 20 35
r 2.94465 2 0 ack 40 ------- 0 3.0 0.0 11 26
+ 2.94465 0 2 tcp 1500 ------- 0 0.0 3.0 23 38
- 2.94465 0 2 tcp 1500 ------- 0 0.0 3.0 23 38
+ 2.94465 0 2 tcp 1500 ------- 0 0.0 3.0 24 39
- 2.94865 0 2 tcp 1500 ------- 0 0.0 3.0 24 39
r 2.957043 1 2 ack 40 ------- 0 3.0 0.0 13 28
+ 2.957043 2 0 ack 40 ------- 0 3.0 0.0 13 28
- 2.957043 2 0 ack 40 ------- 0 3.0 0.0 13 28
r 2.9674 0 2 tcp 1500 ------- 0 0.0 3.0 21 36
+ 2.9674 2 1 tcp 1500 ------- 0 0.0 3.0 21 36
- 2.9674 2 1 tcp 1500 ------- 0 0.0 3.0 18 33
r 2.9714 0 2 tcp 1500 ------- 0 0.0 3.0 22 37
+ 2.9714 2 1 tcp 1500 ------- 0 0.0 3.0 22 37
r 2.9759 2 0 ack 40 ------- 0 3.0 0.0 12 27
+ 2.9759 0 2 tcp 1500 ------- 0 0.0 3.0 25 40
- 2.9759 0 2 tcp 1500 ------- 0 0.0 3.0 25 40
+ 2.9759 0 2 tcp 1500 ------- 0 0.0 3.0 26 41
- 2.9799 0 2 tcp 1500 ------- 0 0.0 3.0 26 41
r 2.988293 1 2 ack 40 ------- 0 3.0 0.0 14 31
+ 2.988293 2 0 ack 40 ------- 0 3.0 0.0 14 31
- 2.988293 2 0 ack 40 ------- 0 3.0 0.0 14 31
r 2.99865 0 2 tcp 1500 ------- 0 0.0 3.0 23 38
+ 2.99865 2 1 tcp 1500 ------- 0 0.0 3.0 23 38
- 2.99865 2 1 tcp 1500 ------- 0 0.0 3.0 19 34
r 3.00265 0 2 tcp 1500 ------- 0 0.0 3.0 24 39
+ 3.00265 2 1 tcp 1500 ------- 0 0.0 3.0 24 39
r 3.00715 2 0 ack 40 ------- 0 3.0 0.0 13 28
+ 3.00715 0 2 tcp 1500 ------- 0 0.0 3.0 27 42
- 3.00715 0 2 tcp 1500 ------- 0 0.0 3.0 27 42
+ 3.00715 0 2 tcp 1500 ------- 0 0.0 3.0 28 43
- 3.01115 0 2 tcp 1500 ------- 0 0.0 3.0 28 43
r 3.0299 0 2 tcp 1500 ------- 0 0.0 3.0 25 40
+ 3.0299 2 1 tcp 1500 ------- 0 0.0 3.0 25 40
d 3.0299 2 1 tcp 1500 ------- 0 0.0 3.0 25 40
- 3.0299 2 1 tcp 1500 ------- 0 0.0 3.0 20 35
r 3.0339 0 2 tcp 1500 ------- 0 0.0 3.0 26 41
+ 3.0339 2 1 tcp 1500 ------- 0 0.0 3.0 26 41
r 3.0384 2 0 ack 40 ------- 0 3.0 0.0 14 31
+ 3.0384 0 2 tcp 1500 ------- 0 0.0 3.0 29 44
- 3.0384 0 2 tcp 1500 ------- 0 0.0 3.0 29 44
+ 3.0384 0 2 tcp 1500 ------- 0 0.0 3.0 30 45
- 3.0424 0 2 tcp 1500 ------- 0 0.0 3.0 30 45
r 3.0549 2 1 tcp 1500 ------- 0 0.0 3.0 15 29
+ 3.0549 1 3 tcp 1500 ------- 0 0.0 3.0 15 29
- 3.0549 1 3 tcp 1500 ------- 0 0.0 3.0 15 29
r 3.06115 0 2 tcp 1500 ------- 0 0.0 3.0 27 42
+ 3.06115 2 1 tcp 1500 ------- 0 0.0 3.0 27 42
d 3.06115 2 1 tcp 1500 ------- 0 0.0 3.0 27 42
- 3.06115 2 1 tcp 1500 ------- 0 0.0 3.0 21 36
r 3.06515 0 2 tcp 1500 ------- 0 0.0 3.0 28 43
+ 3.06515 2 1 tcp 1500 ------- 0 0.0 3.0 28 43
r 3.0689 1 3 tcp 1500 ------- 0 0.0 3.0 15 29
+ 3.0689 3 1 ack 40 ------- 0 3.0 0.0 15 46
- 3.0689 3 1 ack 40 ------- 0 3.0 0.0 15 46
r 3.079007 3 1 ack 40 ------- 0 3.0 0.0 15 46
+ 3.079007 1 2 ack 40 ------- 0 3.0 0.0 15 46
- 3.079007 1 2 ack 40 ------- 0 3.0 0.0 15 46
r 3.08615 2 1 tcp 1500 ------- 0 0.0 3.0 16 30
+ 3.08615 1 3 tcp 1500 ------- 0 0.0 3.0 16 30
- 3.08615 1 3 tcp 1500 ------- 0 0.0 3.0 16 30
r 3.0924 0 2 tcp 1500 ------- 0 0.0 3.0 29 44
+ 3.0924 2 1 tcp 1500 ------- 0 0.0 3.0 29 44
d 3.0924 2 1 tcp 1500 ------- 0 0.0 3.0 29 44
- 3.0924 2 1 tcp 1500 ------- 0 0.0 3.0 22 37
r 3.0964 0 2 tcp 1500 ------- 0 0.0 3.0 30 45
+ 3.0964 2 1 tcp 1500 ------- 0 0.0 3.0 30 45
r 3.10015 1 3 tcp 1500 ------- 0 0.0 3.0 16 30
+ 3.10015 3 1 ack 40 ------- 0 3.0 0.0 16 47
- 3.10015 3 1 ack 40 ------- 0 3.0 0.0 16 47
r 3.110257 3 1 ack 40 ------- 0 3.0 0.0 16 47
+ 3.110257 1 2 ack 40 ------- 0 3.0 0.0 16 47
- 3.110257 1 2 ack 40 ------- 0 3.0 0.0 16 47
r 3.1174 2 1 tcp 1500 ------- 0 0.0 3.0 17 32
+ 3.1174 1 3 tcp 1500 ------- 0 0.0 3.0 17 32
- 3.1174 1 3 tcp 1500 ------- 0 0.0 3.0 17 32
- 3.12365 2 1 tcp 1500 ------- 0 0.0 3.0 23 38
r 3.1314 1 3 tcp 1500 ------- 0 0.0 3.0 17 32
+ 3.1314 3 1 ack 40 ------- 0 3.0 0.0 17 48
- 3.1314 3 1 ack 40 ------- 0 3.0 0.0 17 48
r 3.141507 3 1 ack 40 ------- 0 3.0 0.0 17 48
+ 3.141507 1 2 ack 40 ------- 0 3.0 0.0 17 48
- 3.141507 1 2 ack 40 ------- 0 3.0 0.0 17 48
r 3.14865 2 1 tcp 1500 ------- 0 0.0 3.0 18 33
+ 3.14865 1 3 tcp 1500 ------- 0 0.0 3.0 18 33
- 3.14865 1 3 tcp 1500 ------- 0 0.0 3.0 18 33
- 3.1549 2 1 tcp 1500 ------- 0 0.0 3.0 24 39
r 3.16265 1 3 tcp 1500 ------- 0 0.0 3.0 18 33
+ 3.16265 3 1 ack 40 ------- 0 3.0 0.0 18 49
- 3.16265 3 1 ack 40 ------- 0 3.0 0.0 18 49
r 3.172757 3 1 ack 40 ------- 0 3.0 0.0 18 49
+ 3.172757 1 2 ack 40 ------- 0 3.0 0.0 18 49
- 3.172757 1 2 ack 40 ------- 0 3.0 0.0 18 49
r 3.1799 2 1 tcp 1500 ------- 0 0.0 3.0 19 34
+ 3.1799 1 3 tcp 1500 ------- 0 0.0 3.0 19 34
- 3.1799 1 3 tcp 1500 ------- 0 0.0 3.0 19 34
- 3.18615 2 1 tcp 1500 ------- 0 0.0 3.0 26 41
r 3.1939 1 3 tcp 1500 ------- 0 0.0 3.0 19 34
+ 3.1939 3 1 ack 40 ------- 0 3.0 0.0 19 50
- 3.1939 3 1 ack 40 ------- 0 3.0 0.0 19 50
r 3.204007 3 1 ack 40 ------- 0 3.0 0.0 19 50
+ 3.204007 1 2 ack 40 ------- 0 3.0 0.0 19 50
- 3.204007 1 2 ack 40 ------- 0 3.0 0.0 19 50
r 3.21115 2 1 tcp 1500 ------- 0 0.0 3.0 20 35
+ 3.21115 1 3 tcp 1500 ------- 0 0.0 3.0 20 35
- 3.21115 1 3 tcp 1500 ------- 0 0.0 3.0 20 35
- 3.2174 2 1 tcp 1500 ------- 0 0.0 3.0 28 43
r 3.22515 1 3 tcp 1500 ------- 0 0.0 3.0 20 35
+ 3.22515 3 1 ack 40 ------- 0 3.0 0.0 20 51
- 3.22515 3 1 ack 40 ------- 0 3.0 0.0 20 51
r 3.234007 1 2 ack 40 ------- 0 3.0 0.0 15 46
+ 3.234007 2 0 ack 40 ------- 0 3.0 0.0 15 46
- 3.234007 2 0 ack 40 ------- 0 3.0 0.0 15 46
r 3.235257 3 1 ack 40 ------- 0 3.0 0.0 20 51
+ 3.235257 1 2 ack 40 ------- 0 3.0 0.0 20 51
- 3.235257 1 2 ack 40 ------- 0 3.0 0.0 20 51
r 3.2424 2 1 tcp 1500 ------- 0 0.0 3.0 21 36
+ 3.2424 1 3 tcp 1500 ------- 0 0.0 3.0 21 36
- 3.2424 1 3 tcp 1500 ------- 0 0.0 3.0 21 36
- 3.24865 2 1 tcp 1500 ------- 0 0.0 3.0 30 45
r 3.2564 1 3 tcp 1500 ------- 0 0.0 3.0 21 36
+ 3.2564 3 1 ack 40 ------- 0 3.0 0.0 21 52
- 3.2564 3 1 ack 40 ------- 0 3.0 0.0 21 52
r 3.265257 1 2 ack 40 ------- 0 3.0 0.0 16 47
+ 3.265257 2 0 ack 40 ------- 0 3.0 0.0 16 47
- 3.265257 2 0 ack 40 ------- 0 3.0 0.0 16 47
r 3.266507 3 1 ack 40 ------- 0 3.0 0.0 21 52
+ 3.266507 1 2 ack 40 ------- 0 3.0 0.0 21 52
- 3.266507 1 2 ack 40 ------- 0 3.0 0.0 21 52
r 3.27365 2 1 tcp 1500 ------- 0 0.0 3.0 22 37
+ 3.27365 1 3 tcp 1500 ------- 0 0.0 3.0 22 37
- 3.27365 1 3 tcp 1500 ------- 0 0.0 3.0 22 37
r 3.284113 2 0 ack 40 ------- 0 3.0 0.0 15 46
+ 3.284113 0 2 tcp 1500 ------- 0 0.0 3.0 31 53
- 3.284113 0 2 tcp 1500 ------- 0 0.0 3.0 31 53
+ 3.284113 0 2 tcp 1500 ------- 0 0.0 3.0 32 54
r 3.28765 1 3 tcp 1500 ------- 0 0.0 3.0 22 37
+ 3.28765 3 1 ack 40 ------- 0 3.0 0.0 22 55
- 3.28765 3 1 ack 40 ------- 0 3.0 0.0 22 55
- 3.288113 0 2 tcp 1500 ------- 0 0.0 3.0 32 54
r 3.296507 1 2 ack 40 ------- 0 3.0 0.0 17 48
+ 3.296507 2 0 ack 40 ------- 0 3.0 0.0 17 48
- 3.296507 2 0 ack 40 ------- 0 3.0 0.0 17 48
r 3.297757 3 1 ack 40 ------- 0 3.0 0.0 22 55
+ 3.297757 1 2 ack 40 ------- 0 3.0 0.0 22 55
- 3.297757 1 2 ack 40 ------- 0 3.0 0.0 22 55
r 3.3049 2 1 tcp 1500 ------- 0 0.0 3.0 23 38
+ 3.3049 1 3 tcp 1500 ------- 0 0.0 3.0 23 38
- 3.3049 1 3 tcp 1500 ------- 0 0.0 3.0 23 38
r 3.315363 2 0 ack 40 ------- 0 3.0 0.0 16 47
+ 3.315363 0 2 tcp 1500 ------- 0 0.0 3.0 33 56
- 3.315363 0 2 tcp 1500 ------- 0 0.0 3.0 33 56
+ 3.315363 0 2 tcp 1500 ------- 0 0.0 3.0 34 57
r 3.3189 1 3 tcp 1500 ------- 0 0.0 3.0 23 38
+ 3.3189 3 1 ack 40 ------- 0 3.0 0.0 23 58
- 3.3189 3 1 ack 40 ------- 0 3.0 0.0 23 58
- 3.319363 0 2 tcp 1500 ------- 0 0.0 3.0 34 57
r 3.327757 1 2 ack 40 ------- 0 3.0 0.0 18 49
+ 3.327757 2 0 ack 40 ------- 0 3.0 0.0 18 49
- 3.327757 2 0 ack 40 ------- 0 3.0 0.0 18 49
r 3.329007 3 1 ack 40 ------- 0 3.0 0.0 23 58
+ 3.329007 1 2 ack 40 ------- 0 3.0 0.0 23 58
- 3.329007 1 2 ack 40 ------- 0 3.0 0.0 23 58
r 3.33615 2 1 tcp 1500 ------- 0 0.0 3.0 24 39
+ 3.33615 1 3 tcp 1500 ------- 0 0.0 3.0 24 39
- 3.33615 1 3 tcp 1500 ------- 0 0.0 3.0 24 39
r 3.338113 0 2 tcp 1500 ------- 0 0.0 3.0 31 53
+ 3.338113 2 1 tcp 1500 ------- 0 0.0 3.0 31 53
- 3.338113 2 1 tcp 1500 ------- 0 0.0 3.0 31 53
r 3.342113 0 2 tcp 1500 ------- 0 0.0 3.0 32 54
+ 3.342113 2 1 tcp 1500 ------- 0 0.0 3.0 32 54
r 3.346613 2 0 ack 40 ------- 0 3.0 0.0 17 48
+ 3.346613 0 2 tcp 1500 ------- 0 0.0 3.0 35 59
- 3.346613 0 2 tcp 1500 ------- 0 0.0 3.0 35 59
+ 3.346613 0 2 tcp 1500 ------- 0 0.0 3.0 36 60
r 3.35015 1 3 tcp 1500 ------- 0 0.0 3.0 24 39
+ 3.35015 3 1 ack 40 ------- 0 3.0 0.0 24 61
- 3.35015 3 1 ack 40 ------- 0 3.0 0.0 24 61
- 3.350613 0 2 tcp 1500 ------- 0 0.0 3.0 36 60
r 3.359007 1 2 ack 40 ------- 0 3.0 0.0 19 50
+ 3.359007 2 0 ack 40 ------- 0 3.0 0.0 19 50
- 3.359007 2 0 ack 40 ------- 0 3.0 0.0 19 50
r 3.360257 3 1 ack 40 ------- 0 3.0 0.0 24 61
+ 3.360257 1 2 ack 40 ------- 0 3.0 0.0 24 61
- 3.360257 1 2 ack 40 ------- 0 3.0 0.0 24 61
r 3.3674 2 1 tcp 1500 ------- 0 0.0 3.0 26 41
+ 3.3674 1 3 tcp 1500 ------- 0 0.0 3.0 26 41
- 3.3674 1 3 tcp 1500 ------- 0 0.0 3.0 26 41
r 3.369363 0 2 tcp 1500 ------- 0 0.0 3.0 33 56
+ 3.369363 2 1 tcp 1500 ------- 0 0.0 3.0 33 56
- 3.369363 2 1 tcp 1500 ------- 0 0.0 3.0 32 54
r 3.373363 0 2 tcp 1500 ------- 0 0.0 3.0 34 57
+ 3.373363 2 1 tcp 1500 ------- 0 0.0 3.0 34 57
r 3.377863 2 0 ack 40 ------- 0 3.0 0.0 18 49
+ 3.377863 0 2 tcp 1500 ------- 0 0.0 3.0 37 62
- 3.377863 0 2 tcp 1500 ------- 0 0.0 3.0 37 62
+ 3.377863 0 2 tcp 1500 ------- 0 0.0 3.0 38 63
r 3.3814 1 3 tcp 1500 ------- 0 0.0 3.0 26 41
+ 3.3814 3 1 ack 48 ------- 0 3.0 0.0 24 64
- 3.3814 3 1 ack 48 ------- 0 3.0 0.0 24 64
- 3.381863 0 2 tcp 1500 ------- 0 0.0 3.0 38 63
r 3.390257 1 2 ack 40 ------- 0 3.0 0.0 20 51
+ 3.390257 2 0 ack 40 ------- 0 3.0 0.0 20 51
- 3.390257 2 0 ack 40 ------- 0 3.0 0.0 20 51
r 3.391528 3 1 ack 48 ------- 0 3.0 0.0 24 64
+ 3.391528 1 2 ack 48 ------- 0 3.0 0.0 24 64
- 3.391528 1 2 ack 48 ------- 0 3.0 0.0 24 64
r 3.39865 2 1 tcp 1500 ------- 0 0.0 3.0 28 43
+ 3.39865 1 3 tcp 1500 ------- 0 0.0 3.0 28 43
- 3.39865 1 3 tcp 1500 ------- 0 0.0 3.0 28 43
r 3.400613 0 2 tcp 1500 ------- 0 0.0 3.0 35 59
+ 3.400613 2 1 tcp 1500 ------- 0 0.0 3.0 35 59
- 3.400613 2 1 tcp 1500 ------- 0 0.0 3.0 33 56
r 3.404613 0 2 tcp 1500 ------- 0 0.0 3.0 36 60
+ 3.404613 2 1 tcp 1500 ------- 0 0.0 3.0 36 60
r 3.409113 2 0 ack 40 ------- 0 3.0 0.0 19 50
+ 3.409113 0 2 tcp 1500 ------- 0 0.0 3.0 39 65
- 3.409113 0 2 tcp 1500 ------- 0 0.0 3.0 39 65
+ 3.409113 0 2 tcp 1500 ------- 0 0.0 3.0 40 66
r 3.41265 1 3 tcp 1500 ------- 0 0.0 3.0 28 43
+ 3.41265 3 1 ack 56 ------- 0 3.0 0.0 24 67
- 3.41265 3 1 ack 56 ------- 0 3.0 0.0 24 67
- 3.413113 0 2 tcp 1500 ------- 0 0.0 3.0 40 66
r 3.421507 1 2 ack 40 ------- 0 3.0 0.0 21 52
+ 3.421507 2 0 ack 40 ------- 0 3.0 0.0 21 52
- 3.421507 2 0 ack 40 ------- 0 3.0 0.0 21 52
r 3.422799 3 1 ack 56 ------- 0 3.0 0.0 24 67
+ 3.422799 1 2 ack 56 ------- 0 3.0 0.0 24 67
- 3.422799 1 2 ack 56 ------- 0 3.0 0.0 24 67
r 3.4299 2 1 tcp 1500 ------- 0 0.0 3.0 30 45
+ 3.4299 1 3 tcp 1500 ------- 0 0.0 3.0 30 45
- 3.4299 1 3 tcp 1500 ------- 0 0.0 3.0 30 45
r 3.431863 0 2 tcp 1500 ------- 0 0.0 3.0 37 62
+ 3.431863 2 1 tcp 1500 ------- 0 0.0 3.0 37 62
- 3.431863 2 1 tcp 1500 ------- 0 0.0 3.0 34 57
r 3.435863 0 2 tcp 1500 ------- 0 0.0 3.0 38 63
+ 3.435863 2 1 tcp 1500 ------- 0 0.0 3.0 38 63
r 3.440363 2 0 ack 40 ------- 0 3.0 0.0 20 51
+ 3.440363 0 2 tcp 1500 ------- 0 0.0 3.0 41 68
- 3.440363 0 2 tcp 1500 ------- 0 0.0 3.0 41 68
+ 3.440363 0 2 tcp 1500 ------- 0 0.0 3.0 42 69
r 3.4439 1 3 tcp 1500 ------- 0 0.0 3.0 30 45
+ 3.4439 3 1 ack 64 ------- 0 3.0 0.0 24 70
- 3.4439 3 1 ack 64 ------- 0 3.0 0.0 24 70
- 3.444363 0 2 tcp 1500 ------- 0 0.0 3.0 42 69
r 3.452757 1 2 ack 40 ------- 0 3.0 0.0 22 55
+ 3.452757 2 0 ack 40 ------- 0 3.0 0.0 22 55
- 3.452757 2 0 ack 40 ------- 0 3.0 0.0 22 55
r 3.454071 3 1 ack 64 ------- 0 3.0 0.0 24 70
+ 3.454071 1 2 ack 64 ------- 0 3.0 0.0 24 70
- 3.454071 1 2 ack 64 ------- 0 3.0 0.0 24 70
r 3.463113 0 2 tcp 1500 ------- 0 0.0 3.0 39 65
+ 3.463113 2 1 tcp 1500 ------- 0 0.0 3.0 39 65
- 3.463113 2 1 tcp 1500 ------- 0 0.0 3.0 35 59
r 3.467113 0 2 tcp 1500 ------- 0 0.0 3.0 40 66
+ 3.467113 2 1 tcp 1500 ------- 0 0.0 3.0 40 66
r 3.471613 2 0 ack 40 ------- 0 3.0 0.0 21 52
+ 3.471613 0 2 tcp 1500 ------- 0 0.0 3.0 43 71
- 3.471613 0 2 tcp 1500 ------- 0 0.0 3.0 43 71
+ 3.471613 0 2 tcp 1500 ------- 0 0.0 3.0 44 72
- 3.475613 0 2 tcp 1500 ------- 0 0.0 3.0 44 72
r 3.484007 1 2 ack 40 ------- 0 3.0 0.0 23 58
+ 3.484007 2 0 ack 40 ------- 0 3.0 0.0 23 58
- 3.484007 2 0 ack 40 ------- 0 3.0 0.0 23 58
r 3.494363 0 2 tcp 1500 ------- 0 0.0 3.0 41 68
+ 3.494363 2 1 tcp 1500 ------- 0 0.0 3.0 41 68
d 3.494363 2 1 tcp 1500 ------- 0 0.0 3.0 41 68
- 3.494363 2 1 tcp 1500 ------- 0 0.0 3.0 36 60
r 3.498363 0 2 tcp 1500 ------- 0 0.0 3.0 42 69
+ 3.498363 2 1 tcp 1500 ------- 0 0.0 3.0 42 69
r 3.502863 2 0 ack 40 ------- 0 3.0 0.0 22 55
+ 3.502863 0 2 tcp 1500 ------- 0 0.0 3.0 45 73
- 3.502863 0 2 tcp 1500 ------- 0 0.0 3.0 45 73
+ 3.502863 0 2 tcp 1500 ------- 0 0.0 3.0 46 74
- 3.506863 0 2 tcp 1500 ------- 0 0.0 3.0 46 74
r 3.515257 1 2 ack 40 ------- 0 3.0 0.0 24 61
+ 3.515257 2 0 ack 40 ------- 0 3.0 0.0 24 61
- 3.515257 2 0 ack 40 ------- 0 3.0 0.0 24 61
r 3.519363 2 1 tcp 1500 ------- 0 0.0 3.0 31 53
+ 3.519363 1 3 tcp 1500 ------- 0 0.0 3.0 31 53
- 3.519363 1 3 tcp 1500 ------- 0 0.0 3.0 31 53
r 3.525613 0 2 tcp 1500 ------- 0 0.0 3.0 43 71
+ 3.525613 2 1 tcp 1500 ------- 0 0.0 3.0 43 71
d 3.525613 2 1 tcp 1500 ------- 0 0.0 3.0 43 71
- 3.525613 2 1 tcp 1500 ------- 0 0.0 3.0 37 62
r 3.529613 0 2 tcp 1500 ------- 0 0.0 3.0 44 72
+ 3.529613 2 1 tcp 1500 ------- 0 0.0 3.0 44 72
r 3.533363 1 3 tcp 1500 ------- 0 0.0 3.0 31 53
+ 3.533363 3 1 ack 64 ------- 0 3.0 0.0 24 75
- 3.533363 3 1 ack 64 ------- 0 3.0 0.0 24 75
r 3.534113 2 0 ack 40 ------- 0 3.0 0.0 23 58
+ 3.534113 0 2 tcp 1500 ------- 0 0.0 3.0 47 76
- 3.534113 0 2 tcp 1500 ------- 0 0.0 3.0 47 76
+ 3.534113 0 2 tcp 1500 ------- 0 0.0 3.0 48 77
- 3.538113 0 2 tcp 1500 ------- 0 0.0 3.0 48 77
r 3.543534 3 1 ack 64 ------- 0 3.0 0.0 24 75
+ 3.543534 1 2 ack 64 ------- 0 3.0 0.0 24 75
- 3.543534 1 2 ack 64 ------- 0 3.0 0.0 24 75
r 3.547528 1 2 ack 48 ------- 0 3.0 0.0 24 64
+ 3.547528 2 0 ack 48 ------- 0 3.0 0.0 24 64
- 3.547528 2 0 ack 48 ------- 0 3.0 0.0 24 64
r 3.550613 2 1 tcp 1500 ------- 0 0.0 3.0 32 54
+ 3.550613 1 3 tcp 1500 ------- 0 0.0 3.0 32 54
- 3.550613 1 3 tcp 1500 ------- 0 0.0 3.0 32 54
r 3.556863 0 2 tcp 1500 ------- 0 0.0 3.0 45 73
+ 3.556863 2 1 tcp 1500 ------- 0 0.0 3.0 45 73
d 3.556863 2 1 tcp 1500 ------- 0 0.0 3.0 45 73
- 3.556863 2 1 tcp 1500 ------- 0 0.0 3.0 38 63
r 3.560863 0 2 tcp 1500 ------- 0 0.0 3.0 46 74
+ 3.560863 2 1 tcp 1500 ------- 0 0.0 3.0 46 74
r 3.564613 1 3 tcp 1500 ------- 0 0.0 3.0 32 54
+ 3.564613 3 1 ack 64 ------- 0 3.0 0.0 24 78
- 3.564613 3 1 ack 64 ------- 0 3.0 0.0 24 78
r 3.565363 2 0 ack 40 ------- 0 3.0 0.0 24 61
+ 3.565363 0 2 tcp 1500 ------- 0 0.0 3.0 49 79
- 3.565363 0 2 tcp 1500 ------- 0 0.0 3.0 49 79
+ 3.565363 0 2 tcp 1500 ------- 0 0.0 3.0 50 80
- 3.569363 0 2 tcp 1500 ------- 0 0.0 3.0 50 80
r 3.574784 3 1 ack 64 ------- 0 3.0 0.0 24 78
+ 3.574784 1 2 ack 64 ------- 0 3.0 0.0 24 78
- 3.574784 1 2 ack 64 ------- 0 3.0 0.0 24 78
r 3.579799 1 2 ack 56 ------- 0 3.0 0.0 24 67
+ 3.579799 2 0 ack 56 ------- 0 3.0 0.0 24 67
- 3.579799 2 0 ack 56 ------- 0 3.0 0.0 24 67
r 3.581863 2 1 tcp 1500 ------- 0 0.0 3.0 33 56
+ 3.581863 1 3 tcp 1500 ------- 0 0.0 3.0 33 56
- 3.581863 1 3 tcp 1500 ------- 0 0.0 3.0 33 56
r 3.588113 0 2 tcp 1500 ------- 0 0.0 3.0 47 76
+ 3.588113 2 1 tcp 1500 ------- 0 0.0 3.0 47 76
d 3.588113 2 1 tcp 1500 ------- 0 0.0 3.0 47 76
- 3.588113 2 1 tcp 1500 ------- 0 0.0 3.0 39 65
r 3.592113 0 2 tcp 1500 ------- 0 0.0 3.0 48 77
+ 3.592113 2 1 tcp 1500 ------- 0 0.0 3.0 48 77
r 3.595863 1 3 tcp 1500 ------- 0 0.0 3.0 33 56
+ 3.595863 3 1 ack 64 ------- 0 3.0 0.0 24 81
- 3.595863 3 1 ack 64 ------- 0 3.0 0.0 24 81
r 3.597656 2 0 ack 48 ------- 0 3.0 0.0 24 64
+ 3.597656 0 2 tcp 1500 ------- 0 0.0 3.0 51 82
- 3.597656 0 2 tcp 1500 ------- 0 0.0 3.0 51 82
r 3.606034 3 1 ack 64 ------- 0 3.0 0.0 24 81
+ 3.606034 1 2 ack 64 ------- 0 3.0 0.0 24 81
- 3.606034 1 2 ack 64 ------- 0 3.0 0.0 24 81
r 3.612071 1 2 ack 64 ------- 0 3.0 0.0 24 70
+ 3.612071 2 0 ack 64 ------- 0 3.0 0.0 24 70
- 3.612071 2 0 ack 64 ------- 0 3.0 0.0 24 70
r 3.613113 2 1 tcp 1500 ------- 0 0.0 3.0 34 57
+ 3.613113 1 3 tcp 1500 ------- 0 0.0 3.0 34 57
- 3.613113 1 3 tcp 1500 ------- 0 0.0 3.0 34 57
r 3.619363 0 2 tcp 1500 ------- 0 0.0 3.0 49 79
+ 3.619363 2 1 tcp 1500 ------- 0 0.0 3.0 49 79
d 3.619363 2 1 tcp 1500 ------- 0 0.0 3.0 49 79
- 3.619363 2 1 tcp 1500 ------- 0 0.0 3.0 40 66
r 3.623363 0 2 tcp 1500 ------- 0 0.0 3.0 50 80
+ 3.623363 2 1 tcp 1500 ------- 0 0.0 3.0 50 80
r 3.627113 1 3 tcp 1500 ------- 0 0.0 3.0 34 57
+ 3.627113 3 1 ack 64 ------- 0 3.0 0.0 24 83
- 3.627113 3 1 ack 64 ------- 0 3.0 0.0 24 83
r 3.629949 2 0 ack 56 ------- 0 3.0 0.0 24 67