n -t 0 -s 0 -S DLABEL -l "isp" -L ""
n -t 0 -s 1 -S DLABEL -l "ms" -L ""
n -t 0 -s 2 -S DLABEL -l "bs" -L ""
n -t 0 -s 3 -S DLABEL -l "lp" -L ""
V -t * -v 1.0a5 -a 0
A -t * -n 1 -p 0 -o 0x7fffffff -c 30 -a 1
A -t * -h 1 -m 1073741823 -s 0
n -t * -a 0 -s 0 -S UP -v circle -c black -i black
n -t * -a 1 -s 1 -S UP -v circle -c black -i black
n -t * -a 2 -s 2 -S UP -v circle -c black -i black
n -t * -a 3 -s 3 -S UP -v circle -c black -i black
l -t * -s 3 -d 1 -S UP -r 3000000 -D 0.01 -c black
l -t * -s 1 -d 2 -S UP -r 9600 -D 0.5 -c black
l -t * -s 2 -d 0 -S UP -r 3000000 -D 0.050000000000000003 -c black
+ -t 1 -s 0 -d 2 -p tcp -e 40 -c 0 -i 0 -a 0 -x {0.0 3.0 0 ------- null}
- -t 1 -s 0 -d 2 -p tcp -e 40 -c 0 -i 0 -a 0 -x {0.0 3.0 0 ------- null}
h -t 1 -s 0 -d 2 -p tcp -e 40 -c 0 -i 0 -a 0 -x {0.0 3.0 -1 ------- null}
r -t 1.05010666666667 -s 0 -d 2 -p tcp -e 40 -c 0 -i 0 -a 0 -x {0.0 3.0 0 ------- null}
+ -t 1.05010666666667 -s 2 -d 1 -p tcp -e 40 -c 0 -i 0 -a 0 -x {0.0 3.0 0 ------- null}
- -t 1.46304099197756 -s 2 -d 1 -p tcp -e 40 -c 0 -i 0 -a 0 -x {0.0 3.0 0 ------- null}
h -t 1.46304099197756 -s 2 -d 1 -p tcp -e 40 -c 0 -i 0 -a 0 -x {0.0 3.0 -1 ------- null}
r -t 1.99637432531089 -s 2 -d 1 -p tcp -e 40 -c 0 -i 0 -a 0 -x {0.0 3.0 0 ------- null}
+ -t 1.99637432531089 -s 1 -d 3 -p tcp -e 40 -c 0 -i 0 -a 0 -x {0.0 3.0 0 ------- null}
- -t 1.99637432531089 -s 1 -d 3 -p tcp -e 40 -c 0 -i 0 -a 0 -x {0.0 3.0 0 ------- null}
h -t 1.99637432531089 -s 1 -d 3 -p tcp -e 40 -c 0 -i 0 -a 0 -x {0.0 3.0 -1 ------- null}
r -t 2.00648099197756 -s 1 -d 3 -p tcp -e 40 -c 0 -i 0 -a 0 -x {0.0 3.0 0 ------- null}
+ -t 2.00648099197756 -s 3 -d 1 -p ack -e 40 -c 0 -i 1 -a 0 -x {3.0 0.0 0 ------- null}
- -t 2.00648099197756 -s 3 -d 1 -p ack -e 40 -c 0 -i 1 -a 0 -x {3.0 0.0 0 ------- null}
h -t 2.00648099197756 -s 3 -d 1 -p ack -e 40 -c 0 -i 1 -a 0 -x {3.0 0.0 -1 ------- null}
r -t 2.01658765864422 -s 3 -d 1 -p ack -e 40 -c 0 -i 1 -a 0 -x {3.0 0.0 0 ------- null}
+ -t 2.01658765864422 -s 1 -d 2 -p ack -e 40 -c 0 -i 1 -a 0 -x {3.0 0.0 0 ------- null}
- -t 2.12868755467361 -s 1 -d 2 -p ack -e 40 -c 0 -i 1 -a 0 -x {3.0 0.0 0 ------- null}
h -t 2.12868755467361 -s 1 -d 2 -p ack -e 40 -c 0 -i 1 -a 0 -x {3.0 0.0 -1 ------- null}
r -t 2.66202088800695 -s 1 -d 2 -p ack -e 40 -c 0 -i 1 -a 0 -x {3.0 0.0 0 ------- null}
+ -t 2.66202088800695 -s 2 -d 0 -p ack -e 40 -c 0 -i 1 -a 0 -x {3.0 0.0 0 ------- null}
- -t 2.66202088800695 -s 2 -d 0 -p ack -e 40 -c 0 -i 1 -a 0 -x {3.0 0.0 0 ------- null}
h -t 2.66202088800695 -s 2 -d 0 -p ack -e 40 -c 0 -i 1 -a 0 -x {3.0 0.0 -1 ------- null}
r -t 2.71212755467361 -s 2 -d 0 -p ack -e 40 -c 0 -i 1 -a 0 -x {3.0 0.0 0 ------- null}
+ -t 2.71212755467361 -s 0 -d 2 -p tcp -e 1500 -c 0 -i 2 -a 0 -x {0.0 3.0 1 ------- null}
- -t 2.71212755467361 -s 0 -d 2 -p tcp -e 1500 -c 0 -i 2 -a 0 -x {0.0 3.0 1 ------- null}
h -t 2.71212755467361 -s 0 -d 2 -p tcp -e 1500 -c 0 -i 2 -a 0 -x {0.0 3.0 -1 ------- null}
+ -t 2.71212755467361 -s 0 -d 2 -p tcp -e 1500 -c 0 -i 3 -a 0 -x {0.0 3.0 2 ------- null}
- -t 2.71612755467361 -s 0 -d 2 -p tcp -e 1500 -c 0 -i 3 -a 0 -x {0.0 3.0 2 ------- null}
h -t 2.71612755467361 -s 0 -d 2 -p tcp -e 1500 -c 0 -i 3 -a 0 -x {0.0 3.0 -1 ------- null}
r -t 2.76612755467361 -s 0 -d 2 -p tcp -e 1500 -c 0 -i 2 -a 0 -x {0.0 3.0 1 ------- null}
+ -t 2.76612755467361 -s 2 -d 1 -p tcp -e 1500 -c 0 -i 2 -a 0 -x {0.0 3.0 1 ------- null}
- -t 2.76612755467361 -s 2 -d 1 -p tcp -e 1500 -c 0 -i 2 -a 0 -x {0.0 3.0 1 ------- null}
h -t 2.76612755467361 -s 2 -d 1 -p tcp -e 1500 -c 0 -i 2 -a 0 -x {0.0 3.0 -1 ------- null}
r -t 2.77012755467361 -s 0 -d 2 -p tcp -e 1500 -c 0 -i 3 -a 0 -x {0.0 3.0 2 ------- null}
+ -t 2.77012755467361 -s 2 -d 1 -p tcp -e 1500 -c 0 -i 3 -a 0 -x {0.0 3.0 2 ------- null}
- -t 4.01612755467361 -s 2 -d 1 -p tcp -e 1500 -c 0 -i 3 -a 0 -x {0.0 3.0 2 ------- null}
h -t 4.01612755467361 -s 2 -d 1 -p tcp -e 1500 -c 0 -i 3 -a 0 -x {0.0 3.0 -1 ------- null}
r -t 4.51612755467361 -s 2 -d 1 -p tcp -e 1500 -c 0 -i 2 -a 0 -x {0.0 3.0 1 ------- null}
+ -t 4.51612755467361 -s 1 -d 3 -p tcp -e 1500 -c 0 -i 2 -a 0 -x {0.0 3.0 1 ------- null}
- -t 4.51612755467361 -s 1 -d 3 -p tcp -e 1500 -c 0 -i 2 -a 0 -x {0.0 3.0 1 ------- null}
h -t 4.51612755467361 -s 1 -d 3 -p tcp -e 1500 -c 0 -i 2 -a 0 -x {0.0 3.0 -1 ------- null}
r -t 4.53012755467361 -s 1 -d 3 -p tcp -e 1500 -c 0 -i 2 -a 0 -x {0.0 3.0 1 ------- null}
+ -t 4.53012755467361 -s 3 -d 1 -p ack -e 40 -c 0 -i 4 -a 0 -x {3.0 0.0 1 ------- null}
- -t 4.53012755467361 -s 3 -d 1 -p ack -e 40 -c 0 -i 4 -a 0 -x {3.0 0.0 1 ------- null}
h -t 4.53012755467361 -s 3 -d 1 -p ack -e 40 -c 0 -i 4 -a 0 -x {3.0 0.0 -1 ------- null}
r -t 4.54023422134028 -s 3 -d 1 -p ack -e 40 -c 0 -i 4 -a 0 -x {3.0 0.0 1 ------- null}
+ -t 4.54023422134028 -s 1 -d 2 -p ack -e 40 -c 0 -i 4 -a 0 -x {3.0 0.0 1 ------- null}
- -t 4.76426516647969 -s 1 -d 2 -p ack -e 40 -c 0 -i 4 -a 0 -x {3.0 0.0 1 ------- null}
h -t 4.76426516647969 -s 1 -d 2 -p ack -e 40 -c 0 -i 4 -a 0 -x {3.0 0.0 -1 ------- null}
r -t 5.29759849981302 -s 1 -d 2 -p ack -e 40 -c 0 -i 4 -a 0 -x {3.0 0.0 1 ------- null}
+ -t 5.29759849981302 -s 2 -d 0 -p ack -e 40 -c 0 -i 4 -a 0 -x {3.0 0.0 1 ------- null}
- -t 5.29759849981302 -s 2 -d 0 -p ack -e 40 -c 0 -i 4 -a 0 -x {3.0 0.0 1 ------- null}
h -t 5.29759849981302 -s 2 -d 0 -p ack -e 40 -c 0 -i 4 -a 0 -x {3.0 0.0 -1 ------- null}
r -t 5.34770516647968 -s 2 -d 0 -p ack -e 40 -c 0 -i 4 -a 0 -x {3.0 0.0 1 ------- null}
+ -t 5.34770516647968 -s 0 -d 2 -p tcp -e 1500 -c 0 -i 5 -a 0 -x {0.0 3.0 3 ------- null}
- -t 5.34770516647968 -s 0 -d 2 -p tcp -e 1500 -c 0 -i 5 -a 0 -x {0.0 3.0 3 ------- null}
h -t 5.34770516647968 -s 0 -d 2 -p tcp -e 1500 -c 0 -i 5 -a 0 -x {0.0 3.0 -1 ------- null}
+ -t 5.34770516647968 -s 0 -d 2 -p tcp -e 1500 -c 0 -i 6 -a 0 -x {0.0 3.0 4 ------- null}
- -t 5.35170516647968 -s 0 -d 2 -p tcp -e 1500 -c 0 -i 6 -a 0 -x {0.0 3.0 4 ------- null}
h -t 5.35170516647968 -s 0 -d 2 -p tcp -e 1500 -c 0 -i 6 -a 0 -x {0.0 3.0 -1 ------- null}
r -t 5.40170516647968 -s 0 -d 2 -p tcp -e 1500 -c 0 -i 5 -a 0 -x {0.0 3.0 3 ------- null}
+ -t 5.40170516647968 -s 2 -d 1 -p tcp -e 1500 -c 0 -i 5 -a 0 -x {0.0 3.0 3 ------- null}
- -t 5.40170516647968 -s 2 -d 1 -p tcp -e 1500 -c 0 -i 5 -a 0 -x {0.0 3.0 3 ------- null}
h -t 5.40170516647968 -s 2 -d 1 -p tcp -e 1500 -c 0 -i 5 -a 0 -x {0.0 3.0 -1 ------- null}
r -t 5.40570516647968 -s 0 -d 2 -p tcp -e 1500 -c 0 -i 6 -a 0 -x {0.0 3.0 4 ------- null}
+ -t 5.40570516647968 -s 2 -d 1 -p tcp -e 1500 -c 0 -i 6 -a 0 -x {0.0 3.0 4 ------- null}
r -t 5.76612755467361 -s 2 -d 1 -p tcp -e 1500 -c 0 -i 3 -a 0 -x {0.0 3.0 2 ------- null}
+ -t 5.76612755467361 -s 1 -d 3 -p tcp -e 1500 -c 0 -i 3 -a 0 -x {0.0 3.0 2 ------- null}
- -t 5.76612755467361 -s 1 -d 3 -p tcp -e 1500 -c 0 -i 3 -a 0 -x {0.0 3.0 2 ------- null}
h -t 5.76612755467361 -s 1 -d 3 -p tcp -e 1500 -c 0 -i 3 -a 0 -x {0.0 3.0 -1 ------- null}
r -t 5.78012755467361 -s 1 -d 3 -p tcp -e 1500 -c 0 -i 3 -a 0 -x {0.0 3.0 2 ------- null}
+ -t 5.78012755467361 -s 3 -d 1 -p ack -e 40 -c 0 -i 7 -a 0 -x {3.0 0.0 2 ------- null}
- -t 5.78012755467361 -s 3 -d 1 -p ack -e 40 -c 0 -i 7 -a 0 -x {3.0 0.0 2 ------- null}
h -t 5.78012755467361 -s 3 -d 1 -p ack -e 40 -c 0 -i 7 -a 0 -x {3.0 0.0 -1 ------- null}
r -t 5.79023422134028 -s 3 -d 1 -p ack -e 40 -c 0 -i 7 -a 0 -x {3.0 0.0 2 ------- null}
+ -t 5.79023422134028 -s 1 -d 2 -p ack -e 40 -c 0 -i 7 -a 0 -x {3.0 0.0 2 ------- null}
- -t 6.65170516647968 -s 2 -d 1 -p tcp -e 1500 -c 0 -i 6 -a 0 -x {0.0 3.0 4 ------- null}
h -t 6.65170516647968 -s 2 -d 1 -p tcp -e 1500 -c 0 -i 6 -a 0 -x {0.0 3.0 -1 ------- null}
r -t 7.15170516647968 -s 2 -d 1 -p tcp -e 1500 -c 0 -i 5 -a 0 -x {0.0 3.0 3 ------- null}
+ -t 7.15170516647968 -s 1 -d 3 -p tcp -e 1500 -c 0 -i 5 -a 0 -x {0.0 3.0 3 ------- null}
- -t 7.15170516647968 -s 1 -d 3 -p tcp -e 1500 -c 0 -i 5 -a 0 -x {0.0 3.0 3 ------- null}
h -t 7.15170516647968 -s 1 -d 3 -p tcp -e 1500 -c 0 -i 5 -a 0 -x {0.0 3.0 -1 ------- null}
r -t 7.16570516647969 -s 1 -d 3 -p tcp -e 1500 -c 0 -i 5 -a 0 -x {0.0 3.0 3 ------- null}
+ -t 7.16570516647969 -s 3 -d 1 -p ack -e 40 -c 0 -i 8 -a 0 -x {3.0 0.0 3 ------- null}
- -t 7.16570516647969 -s 3 -d 1 -p ack -e 40 -c 0 -i 8 -a 0 -x {3.0 0.0 3 ------- null}
h -t 7.16570516647969 -s 3 -d 1 -p ack -e 40 -c 0 -i 8 -a 0 -x {3.0 0.0 -1 ------- null}
r -t 7.17581183314635 -s 3 -d 1 -p ack -e 40 -c 0 -i 8 -a 0 -x {3.0 0.0 3 ------- null}
+ -t 7.17581183314635 -s 1 -d 2 -p ack -e 40 -c 0 -i 8 -a 0 -x {3.0 0.0 3 ------- null}
- -t 7.36590639148928 -s 1 -d 2 -p ack -e 40 -c 0 -i 7 -a 0 -x {3.0 0.0 2 ------- null}
h -t 7.36590639148928 -s 1 -d 2 -p ack -e 40 -c 0 -i 7 -a 0 -x {3.0 0.0 -1 ------- null}
- -t 7.39923972482261 -s 1 -d 2 -p ack -e 40 -c 0 -i 8 -a 0 -x {3.0 0.0 3 ------- null}
h -t 7.39923972482261 -s 1 -d 2 -p ack -e 40 -c 0 -i 8 -a 0 -x {3.0 0.0 -1 ------- null}
r -t 7.89923972482261 -s 1 -d 2 -p ack -e 40 -c 0 -i 7 -a 0 -x {3.0 0.0 2 ------- null}
+ -t 7.89923972482261 -s 2 -d 0 -p ack -e 40 -c 0 -i 7 -a 0 -x {3.0 0.0 2 ------- null}
- -t 7.89923972482261 -s 2 -d 0 -p ack -e 40 -c 0 -i 7 -a 0 -x {3.0 0.0 2 ------- null}
h -t 7.89923972482261 -s 2 -d 0 -p ack -e 40 -c 0 -i 7 -a 0 -x {3.0 0.0 -1 ------- null}
r -t 7.93257305815595 -s 1 -d 2 -p ack -e 40 -c 0 -i 8 -a 0 -x {3.0 0.0 3 ------- null}
+ -t 7.93257305815595 -s 2 -d 0 -p ack -e 40 -c 0 -i 8 -a 0 -x {3.0 0.0 3 ------- null}
- -t 7.93257305815595 -s 2 -d 0 -p ack -e 40 -c 0 -i 8 -a 0 -x {3.0 0.0 3 ------- null}
h -t 7.93257305815595 -s 2 -d 0 -p ack -e 40 -c 0 -i 8 -a 0 -x {3.0 0.0 -1 ------- null}
r -t 7.94934639148928 -s 2 -d 0 -p ack -e 40 -c 0 -i 7 -a 0 -x {3.0 0.0 2 ------- null}
+ -t 7.94934639148928 -s 0 -d 2 -p tcp -e 1500 -c 0 -i 9 -a 0 -x {0.0 3.0 5 ------- null}
- -t 7.94934639148928 -s 0 -d 2 -p tcp -e 1500 -c 0 -i 9 -a 0 -x {0.0 3.0 5 ------- null}
h -t 7.94934639148928 -s 0 -d 2 -p tcp -e 1500 -c 0 -i 9 -a 0 -x {0.0 3.0 -1 ------- null}
+ -t 7.94934639148928 -s 0 -d 2 -p tcp -e 1500 -c 0 -i 10 -a 0 -x {0.0 3.0 6 ------- null}
- -t 7.95334639148928 -s 0 -d 2 -p tcp -e 1500 -c 0 -i 10 -a 0 -x {0.0 3.0 6 ------- null}
h -t 7.95334639148928 -s 0 -d 2 -p tcp -e 1500 -c 0 -i 10 -a 0 -x {0.0 3.0 -1 ------- null}
r -t 7.98267972482261 -s 2 -d 0 -p ack -e 40 -c 0 -i 8 -a 0 -x {3.0 0.0 3 ------- null}
+ -t 7.98267972482261 -s 0 -d 2 -p tcp -e 1500 -c 0 -i 11 -a 0 -x {0.0 3.0 7 ------- null}
- -t 7.98267972482261 -s 0 -d 2 -p tcp -e 1500 -c 0 -i 11 -a 0 -x {0.0 3.0 7 ------- null}
h -t 7.98267972482261 -s 0 -d 2 -p tcp -e 1500 -c 0 -i 11 -a 0 -x {0.0 3.0 -1 ------- null}
+ -t 7.98267972482261 -s 0 -d 2 -p tcp -e 1500 -c 0 -i 12 -a 0 -x {0.0 3.0 8 ------- null}
- -t 7.98667972482261 -s 0 -d 2 -p tcp -e 1500 -c 0 -i 12 -a 0 -x {0.0 3.0 8 ------- null}
h -t 7.98667972482261 -s 0 -d 2 -p tcp -e 1500 -c 0 -i 12 -a 0 -x {0.0 3.0 -1 ------- null}
r -t 8.00334639148928 -s 0 -d 2 -p tcp -e 1500 -c 0 -i 9 -a 0 -x {0.0 3.0 5 ------- null}
+ -t 8.00334639148928 -s 2 -d 1 -p tcp -e 1500 -c 0 -i 9 -a 0 -x {0.0 3.0 5 ------- null}
- -t 8.00334639148928 -s 2 -d 1 -p tcp -e 1500 -c 0 -i 9 -a 0 -x {0.0 3.0 5 ------- null}
h -t 8.00334639148928 -s 2 -d 1 -p tcp -e 1500 -c 0 -i 9 -a 0 -x {0.0 3.0 -1 ------- null}
r -t 8.00734639148928 -s 0 -d 2 -p tcp -e 1500 -c 0 -i 10 -a 0 -x {0.0 3.0 6 ------- null}
+ -t 8.00734639148928 -s 2 -d 1 -p tcp -e 1500 -c 0 -i 10 -a 0 -x {0.0 3.0 6 ------- null}
r -t 8.03667972482261 -s 0 -d 2 -p tcp -e 1500 -c 0 -i 11 -a 0 -x {0.0 3.0 7 ------- null}
+ -t 8.03667972482261 -s 2 -d 1 -p tcp -e 1500 -c 0 -i 11 -a 0 -x {0.0 3.0 7 ------- null}
r -t 8.04067972482261 -s 0 -d 2 -p tcp -e 1500 -c 0 -i 12 -a 0 -x {0.0 3.0 8 ------- null}
+ -t 8.04067972482261 -s 2 -d 1 -p tcp -e 1500 -c 0 -i 12 -a 0 -x {0.0 3.0 8 ------- null}
r -t 8.40170516647968 -s 2 -d 1 -p tcp -e 1500 -c 0 -i 6 -a 0 -x {0.0 3.0 4 ------- null}
+ -t 8.40170516647968 -s 1 -d 3 -p tcp -e 1500 -c 0 -i 6 -a 0 -x {0.0 3.0 4 ------- null}
- -t 8.40170516647968 -s 1 -d 3 -p tcp -e 1500 -c 0 -i 6 -a 0 -x {0.0 3.0 4 ------- null}
h -t 8.40170516647968 -s 1 -d 3 -p tcp -e 1500 -c 0 -i 6 -a 0 -x {0.0 3.0 -1 ------- null}
r -t 8.41570516647968 -s 1 -d 3 -p tcp -e 1500 -c 0 -i 6 -a 0 -x {0.0 3.0 4 ------- null}
+ -t 8.41570516647968 -s 3 -d 1 -p ack -e 40 -c 0 -i 13 -a 0 -x {3.0 0.0 4 ------- null}
- -t 8.41570516647968 -s 3 -d 1 -p ack -e 40 -c 0 -i 13 -a 0 -x {3.0 0.0 4 ------- null}
h -t 8.41570516647968 -s 3 -d 1 -p ack -e 40 -c 0 -i 13 -a 0 -x {3.0 0.0 -1 ------- null}
r -t 8.42581183314635 -s 3 -d 1 -p ack -e 40 -c 0 -i 13 -a 0 -x {3.0 0.0 4 ------- null}
+ -t 8.42581183314635 -s 1 -d 2 -p ack -e 40 -c 0 -i 13 -a 0 -x {3.0 0.0 4 ------- null}
- -t 9.25334639148928 -s 2 -d 1 -p tcp -e 1500 -c 0 -i 10 -a 0 -x {0.0 3.0 6 ------- null}
h -t 9.25334639148928 -s 2 -d 1 -p tcp -e 1500 -c 0 -i 10 -a 0 -x {0.0 3.0 -1 ------- null}
- -t 9.29785321314091 -s 1 -d 2 -p ack -e 40 -c 0 -i 13 -a 0 -x {3.0 0.0 4 ------- null}
h -t 9.29785321314091 -s 1 -d 2 -p ack -e 40 -c 0 -i 13 -a 0 -x {3.0 0.0 -1 ------- null}
r -t 9.75334639148928 -s 2 -d 1 -p tcp -e 1500 -c 0 -i 9 -a 0 -x {0.0 3.0 5 ------- null}
+ -t 9.75334639148928 -s 1 -d 3 -p tcp -e 1500 -c 0 -i 9 -a 0 -x {0.0 3.0 5 ------- null}
- -t 9.75334639148928 -s 1 -d 3 -p tcp -e 1500 -c 0 -i 9 -a 0 -x {0.0 3.0 5 ------- null}
h -t 9.75334639148928 -s 1 -d 3 -p tcp -e 1500 -c 0 -i 9 -a 0 -x {0.0 3.0 -1 ------- null}
r -t 9.76734639148928 -s 1 -d 3 -p tcp -e 1500 -c 0 -i 9 -a 0 -x {0.0 3.0 5 ------- null}
+ -t 9.76734639148928 -s 3 -d 1 -p ack -e 40 -c 0 -i 14 -a 0 -x {3.0 0.0 5 ------- null}
- -t 9.76734639148928 -s 3 -d 1 -p ack -e 40 -c 0 -i 14 -a 0 -x {3.0 0.0 5 ------- null}
h -t 9.76734639148928 -s 3 -d 1 -p ack -e 40 -c 0 -i 14 -a 0 -x {3.0 0.0 -1 ------- null}
r -t 9.77745305815595 -s 3 -d 1 -p ack -e 40 -c 0 -i 14 -a 0 -x {3.0 0.0 5 ------- null}
+ -t 9.77745305815595 -s 1 -d 2 -p ack -e 40 -c 0 -i 14 -a 0 -x {3.0 0.0 5 ------- null}
r -t 9.83118654647424 -s 1 -d 2 -p ack -e 40 -c 0 -i 13 -a 0 -x {3.0 0.0 4 ------- null}
+ -t 9.83118654647424 -s 2 -d 0 -p ack -e 40 -c 0 -i 13 -a 0 -x {3.0 0.0 4 ------- null}
- -t 9.83118654647424 -s 2 -d 0 -p ack -e 40 -c 0 -i 13 -a 0 -x {3.0 0.0 4 ------- null}
h -t 9.83118654647424 -s 2 -d 0 -p ack -e 40 -c 0 -i 13 -a 0 -x {3.0 0.0 -1 ------- null}
r -t 9.88129321314091 -s 2 -d 0 -p ack -e 40 -c 0 -i 13 -a 0 -x {3.0 0.0 4 ------- null}
+ -t 9.88129321314091 -s 0 -d 2 -p tcp -e 1500 -c 0 -i 15 -a 0 -x {0.0 3.0 9 ------- null}
- -t 9.88129321314091 -s 0 -d 2 -p tcp -e 1500 -c 0 -i 15 -a 0 -x {0.0 3.0 9 ------- null}
h -t 9.88129321314091 -s 0 -d 2 -p tcp -e 1500 -c 0 -i 15 -a 0 -x {0.0 3.0 -1 ------- null}
+ -t 9.88129321314091 -s 0 -d 2 -p tcp -e 1500 -c 0 -i 16 -a 0 -x {0.0 3.0 10 ------- null}
- -t 9.88529321314091 -s 0 -d 2 -p tcp -e 1500 -c 0 -i 16 -a 0 -x {0.0 3.0 10 ------- null}
h -t 9.88529321314091 -s 0 -d 2 -p tcp -e 1500 -c 0 -i 16 -a 0 -x {0.0 3.0 -1 ------- null}
r -t 9.93529321314091 -s 0 -d 2 -p tcp -e 1500 -c 0 -i 15 -a 0 -x {0.0 3.0 9 ------- null}
+ -t 9.93529321314091 -s 2 -d 1 -p tcp -e 1500 -c 0 -i 15 -a 0 -x {0.0 3.0 9 ------- null}
r -t 9.93929321314091 -s 0 -d 2 -p tcp -e 1500 -c 0 -i 16 -a 0 -x {0.0 3.0 10 ------- null}
+ -t 9.93929321314091 -s 2 -d 1 -p tcp -e 1500 -c 0 -i 16 -a 0 -x {0.0 3.0 10 ------- null}
- -t 10.3041658978306 -s 1 -d 2 -p ack -e 40 -c 0 -i 14 -a 0 -x {3.0 0.0 5 ------- null}
h -t 10.3041658978306 -s 1 -d 2 -p ack -e 40 -c 0 -i 14 -a 0 -x {3.0 0.0 -1 ------- null}
- -t 10.5033463914893 -s 2 -d 1 -p tcp -e 1500 -c 0 -i 11 -a 0 -x {0.0 3.0 7 ------- null}
h -t 10.5033463914893 -s 2 -d 1 -p tcp -e 1500 -c 0 -i 11 -a 0 -x {0.0 3.0 -1 ------- null}
r -t 10.837499231164 -s 1 -d 2 -p ack -e 40 -c 0 -i 14 -a 0 -x {3.0 0.0 5 ------- null}
+ -t 10.837499231164 -s 2 -d 0 -p ack -e 40 -c 0 -i 14 -a 0 -x {3.0 0.0 5 ------- null}
- -t 10.837499231164 -s 2 -d 0 -p ack -e 40 -c 0 -i 14 -a 0 -x {3.0 0.0 5 ------- null}
h -t 10.837499231164 -s 2 -d 0 -p ack -e 40 -c 0 -i 14 -a 0 -x {3.0 0.0 -1 ------- null}
r -t 10.8876058978306 -s 2 -d 0 -p ack -e 40 -c 0 -i 14 -a 0 -x {3.0 0.0 5 ------- null}
+ -t 10.8876058978306 -s 0 -d 2 -p tcp -e 1500 -c 0 -i 17 -a 0 -x {0.0 3.0 11 ------- null}
- -t 10.8876058978306 -s 0 -d 2 -p tcp -e 1500 -c 0 -i 17 -a 0 -x {0.0 3.0 11 ------- null}
h -t 10.8876058978306 -s 0 -d 2 -p tcp -e 1500 -c 0 -i 17 -a 0 -x {0.0 3.0 -1 ------- null}
+ -t 10.8876058978306 -s 0 -d 2 -p tcp -e 1500 -c 0 -i 18 -a 0 -x {0.0 3.0 12 ------- null}
- -t 10.8916058978306 -s 0 -d 2 -p tcp -e 1500 -c 0 -i 18 -a 0 -x {0.0 3.0 12 ------- null}
h -t 10.8916058978306 -s 0 -d 2 -p tcp -e 1500 -c 0 -i 18 -a 0 -x {0.0 3.0 -1 ------- null}
r -t 10.9416058978306 -s 0 -d 2 -p tcp -e 1500 -c 0 -i 17 -a 0 -x {0.0 3.0 11 ------- null}
+ -t 10.9416058978306 -s 2 -d 1 -p tcp -e 1500 -c 0 -i 17 -a 0 -x {0.0 3.0 11 ------- null}
r -t 10.9456058978306 -s 0 -d 2 -p tcp -e 1500 -c 0 -i 18 -a 0 -x {0.0 3.0 12 ------- null}
+ -t 10.9456058978306 -s 2 -d 1 -p tcp -e 1500 -c 0 -i 18 -a 0 -x {0.0 3.0 12 ------- null}
r -t 11.0033463914893 -s 2 -d 1 -p tcp -e 1500 -c 0 -i 10 -a 0 -x {0.0 3.0 6 ------- null}
+ -t 11.0033463914893 -s 1 -d 3 -p tcp -e 1500 -c 0 -i 10 -a 0 -x {0.0 3.0 6 ------- null}
- -t 11.0033463914893 -s 1 -d 3 -p tcp -e 1500 -c 0 -i 10 -a 0 -x {0.0 3.0 6 ------- null}
h -t 11.0033463914893 -s 1 -d 3 -p tcp -e 1500 -c 0 -i 10 -a 0 -x {0.0 3.0 -1 ------- null}
r -t 11.0173463914893 -s 1 -d 3 -p tcp -e 1500 -c 0 -i 10 -a 0 -x {0.0 3.0 6 ------- null}
+ -t 11.0173463914893 -s 3 -d 1 -p ack -e 40 -c 0 -i 19 -a 0 -x {3.0 0.0 6 ------- null}
- -t 11.0173463914893 -s 3 -d 1 -p ack -e 40 -c 0 -i 19 -a 0 -x {3.0 0.0 6 ------- null}
h -t 11.0173463914893 -s 3 -d 1 -p ack -e 40 -c 0 -i 19 -a 0 -x {3.0 0.0 -1 ------- null}
r -t 11.0274530581559 -s 3 -d 1 -p ack -e 40 -c 0 -i 19 -a 0 -x {3.0 0.0 6 ------- null}
+ -t 11.0274530581559 -s 1 -d 2 -p ack -e 40 -c 0 -i 19 -a 0 -x {3.0 0.0 6 ------- null}
- -t 11.3557172185488 -s 1 -d 2 -p ack -e 40 -c 0 -i 19 -a 0 -x {3.0 0.0 6 ------- null}
h -t 11.3557172185488 -s 1 -d 2 -p ack -e 40 -c 0 -i 19 -a 0 -x {3.0 0.0 -1 ------- null}
- -t 11.7533463914893 -s 2 -d 1 -p tcp -e 1500 -c 0 -i 12 -a 0 -x {0.0 3.0 8 ------- null}
h -t 11.7533463914893 -s 2 -d 1 -p tcp -e 1500 -c 0 -i 12 -a 0 -x {0.0 3.0 -1 ------- null}
r -t 11.8890505518822 -s 1 -d 2 -p ack -e 40 -c 0 -i 19 -a 0 -x {3.0 0.0 6 ------- null}
+ -t 11.8890505518822 -s 2 -d 0 -p ack -e 40 -c 0 -i 19 -a 0 -x {3.0 0.0 6 ------- null}
- -t 11.8890505518822 -s 2 -d 0 -p ack -e 40 -c 0 -i 19 -a 0 -x {3.0 0.0 6 ------- null}
h -t 11.8890505518822 -s 2 -d 0 -p ack -e 40 -c 0 -i 19 -a 0 -x {3.0 0.0 -1 ------- null}
r -t 11.9391572185488 -s 2 -d 0 -p ack -e 40 -c 0 -i 19 -a 0 -x {3.0 0.0 6 ------- null}
+ -t 11.9391572185488 -s 0 -d 2 -p tcp -e 1500 -c 0 -i 20 -a 0 -x {0.0 3.0 13 ------- null}
- -t 11.9391572185488 -s 0 -d 2 -p tcp -e 1500 -c 0 -i 20 -a 0 -x {0.0 3.0 13 ------- null}
h -t 11.9391572185488 -s 0 -d 2 -p tcp -e 1500 -c 0 -i 20 -a 0 -x {0.0 3.0 -1 ------- null}
+ -t 11.9391572185488 -s 0 -d 2 -p tcp -e 1500 -c 0 -i 21 -a 0 -x {0.0 3.0 14 ------- null}
- -t 11.9431572185488 -s 0 -d 2 -p tcp -e 1500 -c 0 -i 21 -a 0 -x {0.0 3.0 14 ------- null}
h -t 11.9431572185488 -s 0 -d 2 -p tcp -e 1500 -c 0 -i 21 -a 0 -x {0.0 3.0 -1 ------- null}
r -t 11.9931572185488 -s 0 -d 2 -p tcp -e 1500 -c 0 -i 20 -a 0 -x {0.0 3.0 13 ------- null}
+ -t 11.9931572185488 -s 2 -d 1 -p tcp -e 1500 -c 0 -i 20 -a 0 -x {0.0 3.0 13 ------- null}
r -t 11.9971572185488 -s 0 -d 2 -p tcp -e 1500 -c 0 -i 21 -a 0 -x {0.0 3.0 14 ------- null}
+ -t 11.9971572185488 -s 2 -d 1 -p tcp -e 1500 -c 0 -i 21 -a 0 -x {0.0 3.0 14 ------- null}
d -t 11.9971572185488 -s 2 -d 1 -p tcp -e 1500 -c 0 -i 21 -a 0 -x {0.0 3.0 14 ------- null}
r -t 12.2533463914893 -s 2 -d 1 -p tcp -e 1500 -c 0 -i 11 -a 0 -x {0.0 3.0 7 ------- null}
+ -t 12.2533463914893 -s 1 -d 3 -p tcp -e 1500 -c 0 -i 11 -a 0 -x {0.0 3.0 7 ------- null}
- -t 12.2533463914893 -s 1 -d 3 -p tcp -e 1500 -c 0 -i 11 -a 0 -x {0.0 3.0 7 ------- null}
h -t 12.2533463914893 -s 1 -d 3 -p tcp -e 1500 -c 0 -i 11 -a 0 -x {0.0 3.0 -1 ------- null}
r -t 12.2673463914893 -s 1 -d 3 -p tcp -e 1500 -c 0 -i 11 -a 0 -x {0.0 3.0 7 ------- null}
+ -t 12.2673463914893 -s 3 -d 1 -p ack -e 40 -c 0 -i 22 -a 0 -x {3.0 0.0 7 ------- null}
- -t 12.2673463914893 -s 3 -d 1 -p ack -e 40 -c 0 -i 22 -a 0 -x {3.0 0.0 7 ------- null}
h -t 12.2673463914893 -s 3 -d 1 -p ack -e 40 -c 0 -i 22 -a 0 -x {3.0 0.0 -1 ------- null}
r -t 12.2774530581559 -s 3 -d 1 -p ack -e 40 -c 0 -i 22 -a 0 -x {3.0 0.0 7 ------- null}
+ -t 12.2774530581559 -s 1 -d 2 -p ack -e 40 -c 0 -i 22 -a 0 -x {3.0 0.0 7 ------- null}
- -t 12.3516640378085 -s 1 -d 2 -p ack -e 40 -c 0 -i 22 -a 0 -x {3.0 0.0 7 ------- null}
h -t 12.3516640378085 -s 1 -d 2 -p ack -e 40 -c 0 -i 22 -a 0 -x {3.0 0.0 -1 ------- null}
r -t 12.8849973711418 -s 1 -d 2 -p ack -e 40 -c 0 -i 22 -a 0 -x {3.0 0.0 7 ------- null}
+ -t 12.8849973711418 -s 2 -d 0 -p ack -e 40 -c 0 -i 22 -a 0 -x {3.0 0.0 7 ------- null}
- -t 12.8849973711418 -s 2 -d 0 -p ack -e 40 -c 0 -i 22 -a 0 -x {3.0 0.0 7 ------- null}
h -t 12.8849973711418 -s 2 -d 0 -p ack -e 40 -c 0 -i 22 -a 0 -x {3.0 0.0 -1 ------- null}
r -t 12.9351040378085 -s 2 -d 0 -p ack -e 40 -c 0 -i 22 -a 0 -x {3.0 0.0 7 ------- null}
+ -t 12.9351040378085 -s 0 -d 2 -p tcp -e 1500 -c 0 -i 23 -a 0 -x {0.0 3.0 15 ------- null}
- -t 12.9351040378085 -s 0 -d 2 -p tcp -e 1500 -c 0 -i 23 -a 0 -x {0.0 3.0 15 ------- null}
h -t 12.9351040378085 -s 0 -d 2 -p tcp -e 1500 -c 0 -i 23 -a 0 -x {0.0 3.0 -1 ------- null}
+ -t 12.9351040378085 -s 0 -d 2 -p tcp -e 1500 -c 0 -i 24 -a 0 -x {0.0 3.0 16 ------- null}
- -t 12.9391040378085 -s 0 -d 2 -p tcp -e 1500 -c 0 -i 24 -a 0 -x {0.0 3.0 16 ------- null}
h -t 12.9391040378085 -s 0 -d 2 -p tcp -e 1500 -c 0 -i 24 -a 0 -x {0.0 3.0 -1 ------- null}
r -t 12.9891040378085 -s 0 -d 2 -p tcp -e 1500 -c 0 -i 23 -a 0 -x {0.0 3.0 15 ------- null}
+ -t 12.9891040378085 -s 2 -d 1 -p tcp -e 1500 -c 0 -i 23 -a 0 -x {0.0 3.0 15 ------- null}
d -t 12.9891040378085 -s 2 -d 1 -p tcp -e 1500 -c 0 -i 23 -a 0 -x {0.0 3.0 15 ------- null}
r -t 12.9931040378085 -s 0 -d 2 -p tcp -e 1500 -c 0 -i 24 -a 0 -x {0.0 3.0 16 ------- null}
+ -t 12.9931040378085 -s 2 -d 1 -p tcp -e 1500 -c 0 -i 24 -a 0 -x {0.0 3.0 16 ------- null}
d -t 12.9931040378085 -s 2 -d 1 -p tcp -e 1500 -c 0 -i 24 -a 0 -x {0.0 3.0 16 ------- null}
- -t 13.0033463914893 -s 2 -d 1 -p tcp -e 1500 -c 0 -i 15 -a 0 -x {0.0 3.0 9 ------- null}
h -t 13.0033463914893 -s 2 -d 1 -p tcp -e 1500 -c 0 -i 15 -a 0 -x {0.0 3.0 -1 ------- null}
r -t 13.5033463914893 -s 2 -d 1 -p tcp -e 1500 -c 0 -i 12 -a 0 -x {0.0 3.0 8 ------- null}
+ -t 13.5033463914893 -s 1 -d 3 -p tcp -e 1500 -c 0 -i 12 -a 0 -x {0.0 3.0 8 ------- null}
- -t 13.5033463914893 -s 1 -d 3 -p tcp -e 1500 -c 0 -i 12 -a 0 -x {0.0 3.0 8 ------- null}
h -t 13.5033463914893 -s 1 -d 3 -p tcp -e 1500 -c 0 -i 12 -a 0 -x {0.0 3.0 -1 ------- null}
r -t 13.5173463914893 -s 1 -d 3 -p tcp -e 1500 -c 0 -i 12 -a 0 -x {0.0 3.0 8 ------- null}
+ -t 13.5173463914893 -s 3 -d 1 -p ack -e 40 -c 0 -i 25 -a 0 -x {3.0 0.0 8 ------- null}
- -t 13.5173463914893 -s 3 -d 1 -p ack -e 40 -c 0 -i 25 -a 0 -x {3.0 0.0 8 ------- null}
h -t 13.5173463914893 -s 3 -d 1 -p ack -e 40 -c 0 -i 25 -a 0 -x {3.0 0.0 -1 ------- null}
r -t 13.5274530581559 -s 3 -d 1 -p ack -e 40 -c 0 -i 25 -a 0 -x {3.0 0.0 8 ------- null}
+ -t 13.5274530581559 -s 1 -d 2 -p ack -e 40 -c 0 -i 25 -a 0 -x {3.0 0.0 8 ------- null}
- -t 14.2384643420265 -s 1 -d 2 -p ack -e 40 -c 0 -i 25 -a 0 -x {3.0 0.0 8 ------- null}
h -t 14.2384643420265 -s 1 -d 2 -p ack -e 40 -c 0 -i 25 -a 0 -x {3.0 0.0 -1 ------- null}
- -t 14.2533463914893 -s 2 -d 1 -p tcp -e 1500 -c 0 -i 16 -a 0 -x {0.0 3.0 10 ------- null}
h -t 14.2533463914893 -s 2 -d 1 -p tcp -e 1500 -c 0 -i 16 -a 0 -x {0.0 3.0 -1 ------- null}
r -t 14.7533463914893 -s 2 -d 1 -p tcp -e 1500 -c 0 -i 15 -a 0 -x {0.0 3.0 9 ------- null}
+ -t 14.7533463914893 -s 1 -d 3 -p tcp -e 1500 -c 0 -i 15 -a 0 -x {0.0 3.0 9 ------- null}
- -t 14.7533463914893 -s 1 -d 3 -p tcp -e 1500 -c 0 -i 15 -a 0 -x {0.0 3.0 9 ------- null}
h -t 14.7533463914893 -s 1 -d 3 -p tcp -e 1500 -c 0 -i 15 -a 0 -x {0.0 3.0 -1 ------- null}
r -t 14.7673463914893 -s 1 -d 3 -p tcp -e 1500 -c 0 -i 15 -a 0 -x {0.0 3.0 9 ------- null}
+ -t 14.7673463914893 -s 3 -d 1 -p ack -e 40 -c 0 -i 26 -a 0 -x {3.0 0.0 9 ------- null}
- -t 14.7673463914893 -s 3 -d 1 -p ack -e 40 -c 0 -i 26 -a 0 -x {3.0 0.0 9 ------- null}
h -t 14.7673463914893 -s 3 -d 1 -p ack -e 40 -c 0 -i 26 -a 0 -x {3.0 0.0 -1 ------- null}
r -t 14.7717976753599 -s 1 -d 2 -p ack -e 40 -c 0 -i 25 -a 0 -x {3.0 0.0 8 ------- null}
+ -t 14.7717976753599 -s 2 -d 0 -p ack -e 40 -c 0 -i 25 -a 0 -x {3.0 0.0 8 ------- null}
- -t 14.7717976753599 -s 2 -d 0 -p ack -e 40 -c 0 -i 25 -a 0 -x {3.0 0.0 8 ------- null}
h -t 14.7717976753599 -s 2 -d 0 -p ack -e 40 -c 0 -i 25 -a 0 -x {3.0 0.0 -1 ------- null}
r -t 14.7774530581559 -s 3 -d 1 -p ack -e 40 -c 0 -i 26 -a 0 -x {3.0 0.0 9 ------- null}
+ -t 14.7774530581559 -s 1 -d 2 -p ack -e 40 -c 0 -i 26 -a 0 -x {3.0 0.0 9 ------- null}
r -t 14.8219043420265 -s 2 -d 0 -p ack -e 40 -c 0 -i 25 -a 0 -x {3.0 0.0 8 ------- null}
+ -t 14.8219043420265 -s 0 -d 2 -p tcp -e 1500 -c 0 -i 27 -a 0 -x {0.0 3.0 17 ------- null}
- -t 14.8219043420265 -s 0 -d 2 -p tcp -e 1500 -c 0 -i 27 -a 0 -x {0.0 3.0 17 ------- null}
h -t 14.8219043420265 -s 0 -d 2 -p tcp -e 1500 -c 0 -i 27 -a 0 -x {0.0 3.0 -1 ------- null}
+ -t 14.8219043420265 -s 0 -d 2 -p tcp -e 1500 -c 0 -i 28 -a 0 -x {0.0 3.0 18 ------- null}
- -t 14.8259043420265 -s 0 -d 2 -p tcp -e 1500 -c 0 -i 28 -a 0 -x {0.0 3.0 18 ------- null}
h -t 14.8259043420265 -s 0 -d 2 -p tcp -e 1500 -c 0 -i 28 -a 0 -x {0.0 3.0 -1 ------- null}
r -t 14.8759043420265 -s 0 -d 2 -p tcp -e 1500 -c 0 -i 27 -a 0 -x {0.0 3.0 17 ------- null}
+ -t 14.8759043420265 -s 2 -d 1 -p tcp -e 1500 -c 0 -i 27 -a 0 -x {0.0 3.0 17 ------- null}
r -t 14.8799043420265 -s 0 -d 2 -p tcp -e 1500 -c 0 -i 28 -a 0 -x {0.0 3.0 18 ------- null}
+ -t 14.8799043420265 -s 2 -d 1 -p tcp -e 1500 -c 0 -i 28 -a 0 -x {0.0 3.0 18 ------- null}
- -t 14.9132052823219 -s 1 -d 2 -p ack -e 40 -c 0 -i 26 -a 0 -x {3.0 0.0 9 ------- null}
h -t 14.9132052823219 -s 1 -d 2 -p ack -e 40 -c 0 -i 26 -a 0 -x {3.0 0.0 -1 ------- null}
r -t 15.4465386156553 -s 1 -d 2 -p ack -e 40 -c 0 -i 26 -a 0 -x {3.0 0.0 9 ------- null}
+ -t 15.4465386156553 -s 2 -d 0 -p ack -e 40 -c 0 -i 26 -a 0 -x {3.0 0.0 9 ------- null}
- -t 15.4465386156553 -s 2 -d 0 -p ack -e 40 -c 0 -i 26 -a 0 -x {3.0 0.0 9 ------- null}
h -t 15.4465386156553 -s 2 -d 0 -p ack -e 40 -c 0 -i 26 -a 0 -x {3.0 0.0 -1 ------- null}
r -t 15.4966452823219 -s 2 -d 0 -p ack -e 40 -c 0 -i 26 -a 0 -x {3.0 0.0 9 ------- null}
+ -t 15.4966452823219 -s 0 -d 2 -p tcp -e 1500 -c 0 -i 29 -a 0 -x {0.0 3.0 19 ------- null}
- -t 15.4966452823219 -s 0 -d 2 -p tcp -e 1500 -c 0 -i 29 -a 0 -x {0.0 3.0 19 ------- null}
h -t 15.4966452823219 -s 0 -d 2 -p tcp -e 1500 -c 0 -i 29 -a 0 -x {0.0 3.0 -1 ------- null}
+ -t 15.4966452823219 -s 0 -d 2 -p tcp -e 1500 -c 0 -i 30 -a 0 -x {0.0 3.0 20 ------- null}
- -t 15.5006452823219 -s 0 -d 2 -p tcp -e 1500 -c 0 -i 30 -a 0 -x {0.0 3.0 20 ------- null}
h -t 15.5006452823219 -s 0 -d 2 -p tcp -e 1500 -c 0 -i 30 -a 0 -x {0.0 3.0 -1 ------- null}
- -t 15.5033463914893 -s 2 -d 1 -p tcp -e 1500 -c 0 -i 17 -a 0 -x {0.0 3.0 11 ------- null}
h -t 15.5033463914893 -s 2 -d 1 -p tcp -e 1500 -c 0 -i 17 -a 0 -x {0.0 3.0 -1 ------- null}
r -t 15.5506452823219 -s 0 -d 2 -p tcp -e 1500 -c 0 -i 29 -a 0 -x {0.0 3.0 19 ------- null}
+ -t 15.5506452823219 -s 2 -d 1 -p tcp -e 1500 -c 0 -i 29 -a 0 -x {0.0 3.0 19 ------- null}
r -t 15.5546452823219 -s 0 -d 2 -p tcp -e 1500 -c 0 -i 30 -a 0 -x {0.0 3.0 20 ------- null}
+ -t 15.5546452823219 -s 2 -d 1 -p tcp -e 1500 -c 0 -i 30 -a 0 -x {0.0 3.0 20 ------- null}
d -t 15.5546452823219 -s 2 -d 1 -p tcp -e 1500 -c 0 -i 30 -a 0 -x {0.0 3.0 20 ------- null}
r -t 16.0033463914893 -s 2 -d 1 -p tcp -e 1500 -c 0 -i 16 -a 0 -x {0.0 3.0 10 ------- null}
+ -t 16.0033463914893 -s 1 -d 3 -p tcp -e 1500 -c 0 -i 16 -a 0 -x {0.0 3.0 10 ------- null}
- -t 16.0033463914893 -s 1 -d 3 -p tcp -e 1500 -c 0 -i 16 -a 0 -x {0.0 3.0 10 ------- null}
h -t 16.0033463914893 -s 1 -d 3 -p tcp -e 1500 -c 0 -i 16 -a 0 -x {0.0 3.0 -1 ------- null}
r -t 16.0173463914893 -s 1 -d 3 -p tcp -e 1500 -c 0 -i 16 -a 0 -x {0.0 3.0 10 ------- null}
+ -t 16.0173463914893 -s 3 -d 1 -p ack -e 40 -c 0 -i 31 -a 0 -x {3.0 0.0 10 ------- null}
- -t 16.0173463914893 -s 3 -d 1 -p ack -e 40 -c 0 -i 31 -a 0 -x {3.0 0.0 10 ------- null}
h -t 16.0173463914893 -s 3 -d 1 -p ack -e 40 -c 0 -i 31 -a 0 -x {3.0 0.0 -1 ------- null}
r -t 16.0274530581559 -s 3 -d 1 -p ack -e 40 -c 0 -i 31 -a 0 -x {3.0 0.0 10 ------- null}
+ -t 16.0274530581559 -s 1 -d 2 -p ack -e 40 -c 0 -i 31 -a 0 -x {3.0 0.0 10 ------- null}
- -t 16.7533463914893 -s 2 -d 1 -p tcp -e 1500 -c 0 -i 18 -a 0 -x {0.0 3.0 12 ------- null}
h -t 16.7533463914893 -s 2 -d 1 -p tcp -e 1500 -c 0 -i 18 -a 0 -x {0.0 3.0 -1 ------- null}
- -t 17.1347471626973 -s 1 -d 2 -p ack -e 40 -c 0 -i 31 -a 0 -x {3.0 0.0 10 ------- null}
h -t 17.1347471626973 -s 1 -d 2 -p ack -e 40 -c 0 -i 31 -a 0 -x {3.0 0.0 -1 ------- null}
r -t 17.2533463914893 -s 2 -d 1 -p tcp -e 1500 -c 0 -i 17 -a 0 -x {0.0 3.0 11 ------- null}
+ -t 17.2533463914893 -s 1 -d 3 -p tcp -e 1500 -c 0 -i 17 -a 0 -x {0.0 3.0 11 ------- null}
- -t 17.2533463914893 -s 1 -d 3 -p tcp -e 1500 -c 0 -i 17 -a 0 -x {0.0 3.0 11 ------- null}
h -t 17.2533463914893 -s 1 -d 3 -p tcp -e 1500 -c 0 -i 17 -a 0 -x {0.0 3.0 -1 ------- null}
r -t 17.2673463914893 -s 1 -d 3 -p tcp -e 1500 -c 0 -i 17 -a 0 -x {0.0 3.0 11 ------- null}
+ -t 17.2673463914893 -s 3 -d 1 -p ack -e 40 -c 0 -i 32 -a 0 -x {3.0 0.0 11 ------- null}
- -t 17.2673463914893 -s 3 -d 1 -p ack -e 40 -c 0 -i 32 -a 0 -x {3.0 0.0 11 ------- null}
h -t 17.2673463914893 -s 3 -d 1 -p ack -e 40 -c 0 -i 32 -a 0 -x {3.0 0.0 -1 ------- null}
r -t 17.2774530581559 -s 3 -d 1 -p ack -e 40 -c 0 -i 32 -a 0 -x {3.0 0.0 11 ------- null}