+ 1 0 2 tcp 40 ------- 0 0.0 3.0 0 0
- 1 0 2 tcp 40 ------- 0 0.0 3.0 0 0
r 1.050107 0 2 tcp 40 ------- 0 0.0 3.0 0 0
+ 1.050107 2 1 tcp 40 ------- 0 0.0 3.0 0 0
- 1.463041 2 1 tcp 40 ------- 0 0.0 3.0 0 0
r 1.996374 2 1 tcp 40 ------- 0 0.0 3.0 0 0
+ 1.996374 1 3 tcp 40 ------- 0 0.0 3.0 0 0
- 1.996374 1 3 tcp 40 ------- 0 0.0 3.0 0 0
r 2.006481 1 3 tcp 40 ------- 0 0.0 3.0 0 0
+ 2.006481 3 1 ack 40 ------- 0 3.0 0.0 0 1
- 2.006481 3 1 ack 40 ------- 0 3.0 0.0 0 1
r 2.016588 3 1 ack 40 ------- 0 3.0 0.0 0 1
+ 2.016588 1 2 ack 40 ------- 0 3.0 0.0 0 1
- 2.128688 1 2 ack 40 ------- 0 3.0 0.0 0 1
r 2.662021 1 2 ack 40 ------- 0 3.0 0.0 0 1
+ 2.662021 2 0 ack 40 ------- 0 3.0 0.0 0 1
- 2.662021 2 0 ack 40 ------- 0 3.0 0.0 0 1
r 2.712128 2 0 ack 40 ------- 0 3.0 0.0 0 1
+ 2.712128 0 2 tcp 1500 ------- 0 0.0 3.0 1 2
- 2.712128 0 2 tcp 1500 ------- 0 0.0 3.0 1 2
+ 2.712128 0 2 tcp 1500 ------- 0 0.0 3.0 2 3
- 2.716128 0 2 tcp 1500 ------- 0 0.0 3.0 2 3
r 2.766128 0 2 tcp 1500 ------- 0 0.0 3.0 1 2
+ 2.766128 2 1 tcp 1500 ------- 0 0.0 3.0 1 2
- 2.766128 2 1 tcp 1500 ------- 0 0.0 3.0 1 2
r 2.770128 0 2 tcp 1500 ------- 0 0.0 3.0 2 3
+ 2.770128 2 1 tcp 1500 ------- 0 0.0 3.0 2 3
- 4.016128 2 1 tcp 1500 ------- 0 0.0 3.0 2 3
r 4.516128 2 1 tcp 1500 ------- 0 0.0 3.0 1 2
+ 4.516128 1 3 tcp 1500 ------- 0 0.0 3.0 1 2
- 4.516128 1 3 tcp 1500 ------- 0 0.0 3.0 1 2
r 4.530128 1 3 tcp 1500 ------- 0 0.0 3.0 1 2
+ 4.530128 3 1 ack 40 ------- 0 3.0 0.0 1 4
- 4.530128 3 1 ack 40 ------- 0 3.0 0.0 1 4
r 4.540234 3 1 ack 40 ------- 0 3.0 0.0 1 4
+ 4.540234 1 2 ack 40 ------- 0 3.0 0.0 1 4
- 4.764265 1 2 ack 40 ------- 0 3.0 0.0 1 4
r 5.297598 1 2 ack 40 ------- 0 3.0 0.0 1 4
+ 5.297598 2 0 ack 40 ------- 0 3.0 0.0 1 4
- 5.297598 2 0 ack 40 ------- 0 3.0 0.0 1 4
r 5.347705 2 0 ack 40 ------- 0 3.0 0.0 1 4
+ 5.347705 0 2 tcp 1500 ------- 0 0.0 3.0 3 5
- 5.347705 0 2 tcp 1500 ------- 0 0.0 3.0 3 5
+ 5.347705 0 2 tcp 1500 ------- 0 0.0 3.0 4 6
- 5.351705 0 2 tcp 1500 ------- 0 0.0 3.0 4 6
r 5.401705 0 2 tcp 1500 ------- 0 0.0 3.0 3 5
+ 5.401705 2 1 tcp 1500 ------- 0 0.0 3.0 3 5
- 5.401705 2 1 tcp 1500 ------- 0 0.0 3.0 3 5
r 5.405705 0 2 tcp 1500 ------- 0 0.0 3.0 4 6
+ 5.405705 2 1 tcp 1500 ------- 0 0.0 3.0 4 6
r 5.766128 2 1 tcp 1500 ------- 0 0.0 3.0 2 3
+ 5.766128 1 3 tcp 1500 ------- 0 0.0 3.0 2 3
- 5.766128 1 3 tcp 1500 ------- 0 0.0 3.0 2 3
r 5.780128 1 3 tcp 1500 ------- 0 0.0 3.0 2 3
+ 5.780128 3 1 ack 40 ------- 0 3.0 0.0 2 7
- 5.780128 3 1 ack 40 ------- 0 3.0 0.0 2 7
r 5.790234 3 1 ack 40 ------- 0 3.0 0.0 2 7
+ 5.790234 1 2 ack 40 ------- 0 3.0 0.0 2 7
- 6.651705 2 1 tcp 1500 ------- 0 0.0 3.0 4 6
r 7.151705 2 1 tcp 1500 ------- 0 0.0 3.0 3 5
+ 7.151705 1 3 tcp 1500 ------- 0 0.0 3.0 3 5
- 7.151705 1 3 tcp 1500 ------- 0 0.0 3.0 3 5
r 7.165705 1 3 tcp 1500 ------- 0 0.0 3.0 3 5
+ 7.165705 3 1 ack 40 ------- 0 3.0 0.0 3 8
- 7.165705 3 1 ack 40 ------- 0 3.0 0.0 3 8
r 7.175812 3 1 ack 40 ------- 0 3.0 0.0 3 8
+ 7.175812 1 2 ack 40 ------- 0 3.0 0.0 3 8
- 7.365906 1 2 ack 40 ------- 0 3.0 0.0 2 7
- 7.39924 1 2 ack 40 ------- 0 3.0 0.0 3 8
r 7.89924 1 2 ack 40 ------- 0 3.0 0.0 2 7
+ 7.89924 2 0 ack 40 ------- 0 3.0 0.0 2 7
- 7.89924 2 0 ack 40 ------- 0 3.0 0.0 2 7
r 7.932573 1 2 ack 40 ------- 0 3.0 0.0 3 8
+ 7.932573 2 0 ack 40 ------- 0 3.0 0.0 3 8
- 7.932573 2 0 ack 40 ------- 0 3.0 0.0 3 8
r 7.949346 2 0 ack 40 ------- 0 3.0 0.0 2 7
+ 7.949346 0 2 tcp 1500 ------- 0 0.0 3.0 5 9
- 7.949346 0 2 tcp 1500 ------- 0 0.0 3.0 5 9
+ 7.949346 0 2 tcp 1500 ------- 0 0.0 3.0 6 10
- 7.953346 0 2 tcp 1500 ------- 0 0.0 3.0 6 10
r 7.98268 2 0 ack 40 ------- 0 3.0 0.0 3 8
+ 7.98268 0 2 tcp 1500 ------- 0 0.0 3.0 7 11
- 7.98268 0 2 tcp 1500 ------- 0 0.0 3.0 7 11
+ 7.98268 0 2 tcp 1500 ------- 0 0.0 3.0 8 12
- 7.98668 0 2 tcp 1500 ------- 0 0.0 3.0 8 12
r 8.003346 0 2 tcp 1500 ------- 0 0.0 3.0 5 9
+ 8.003346 2 1 tcp 1500 ------- 0 0.0 3.0 5 9
- 8.003346 2 1 tcp 1500 ------- 0 0.0 3.0 5 9
r 8.007346 0 2 tcp 1500 ------- 0 0.0 3.0 6 10
+ 8.007346 2 1 tcp 1500 ------- 0 0.0 3.0 6 10
r 8.03668 0 2 tcp 1500 ------- 0 0.0 3.0 7 11
+ 8.03668 2 1 tcp 1500 ------- 0 0.0 3.0 7 11
r 8.04068 0 2 tcp 1500 ------- 0 0.0 3.0 8 12
+ 8.04068 2 1 tcp 1500 ------- 0 0.0 3.0 8 12
r 8.401705 2 1 tcp 1500 ------- 0 0.0 3.0 4 6
+ 8.401705 1 3 tcp 1500 ------- 0 0.0 3.0 4 6
- 8.401705 1 3 tcp 1500 ------- 0 0.0 3.0 4 6
r 8.415705 1 3 tcp 1500 ------- 0 0.0 3.0 4 6
+ 8.415705 3 1 ack 40 ------- 0 3.0 0.0 4 13
- 8.415705 3 1 ack 40 ------- 0 3.0 0.0 4 13
r 8.425812 3 1 ack 40 ------- 0 3.0 0.0 4 13
+ 8.425812 1 2 ack 40 ------- 0 3.0 0.0 4 13
- 9.253346 2 1 tcp 1500 ------- 0 0.0 3.0 6 10
- 9.297853 1 2 ack 40 ------- 0 3.0 0.0 4 13
r 9.753346 2 1 tcp 1500 ------- 0 0.0 3.0 5 9
+ 9.753346 1 3 tcp 1500 ------- 0 0.0 3.0 5 9
- 9.753346 1 3 tcp 1500 ------- 0 0.0 3.0 5 9
r 9.767346 1 3 tcp 1500 ------- 0 0.0 3.0 5 9
+ 9.767346 3 1 ack 40 ------- 0 3.0 0.0 5 14
- 9.767346 3 1 ack 40 ------- 0 3.0 0.0 5 14
r 9.777453 3 1 ack 40 ------- 0 3.0 0.0 5 14
+ 9.777453 1 2 ack 40 ------- 0 3.0 0.0 5 14
r 9.831187 1 2 ack 40 ------- 0 3.0 0.0 4 13
+ 9.831187 2 0 ack 40 ------- 0 3.0 0.0 4 13
- 9.831187 2 0 ack 40 ------- 0 3.0 0.0 4 13
r 9.881293 2 0 ack 40 ------- 0 3.0 0.0 4 13
+ 9.881293 0 2 tcp 1500 ------- 0 0.0 3.0 9 15
- 9.881293 0 2 tcp 1500 ------- 0 0.0 3.0 9 15
+ 9.881293 0 2 tcp 1500 ------- 0 0.0 3.0 10 16
- 9.885293 0 2 tcp 1500 ------- 0 0.0 3.0 10 16
r 9.935293 0 2 tcp 1500 ------- 0 0.0 3.0 9 15
+ 9.935293 2 1 tcp 1500 ------- 0 0.0 3.0 9 15
r 9.939293 0 2 tcp 1500 ------- 0 0.0 3.0 10 16
+ 9.939293 2 1 tcp 1500 ------- 0 0.0 3.0 10 16
- 10.304166 1 2 ack 40 ------- 0 3.0 0.0 5 14
- 10.503346 2 1 tcp 1500 ------- 0 0.0 3.0 7 11
r 10.837499 1 2 ack 40 ------- 0 3.0 0.0 5 14
+ 10.837499 2 0 ack 40 ------- 0 3.0 0.0 5 14
- 10.837499 2 0 ack 40 ------- 0 3.0 0.0 5 14
r 10.887606 2 0 ack 40 ------- 0 3.0 0.0 5 14
+ 10.887606 0 2 tcp 1500 ------- 0 0.0 3.0 11 17
- 10.887606 0 2 tcp 1500 ------- 0 0.0 3.0 11 17
+ 10.887606 0 2 tcp 1500 ------- 0 0.0 3.0 12 18
- 10.891606 0 2 tcp 1500 ------- 0 0.0 3.0 12 18
r 10.941606 0 2 tcp 1500 ------- 0 0.0 3.0 11 17
+ 10.941606 2 1 tcp 1500 ------- 0 0.0 3.0 11 17
r 10.945606 0 2 tcp 1500 ------- 0 0.0 3.0 12 18
+ 10.945606 2 1 tcp 1500 ------- 0 0.0 3.0 12 18
r 11.003346 2 1 tcp 1500 ------- 0 0.0 3.0 6 10
+ 11.003346 1 3 tcp 1500 ------- 0 0.0 3.0 6 10
- 11.003346 1 3 tcp 1500 ------- 0 0.0 3.0 6 10
r 11.017346 1 3 tcp 1500 ------- 0 0.0 3.0 6 10
+ 11.017346 3 1 ack 40 ------- 0 3.0 0.0 6 19
- 11.017346 3 1 ack 40 ------- 0 3.0 0.0 6 19
r 11.027453 3 1 ack 40 ------- 0 3.0 0.0 6 19
+ 11.027453 1 2 ack 40 ------- 0 3.0 0.0 6 19
- 11.355717 1 2 ack 40 ------- 0 3.0 0.0 6 19
- 11.753346 2 1 tcp 1500 ------- 0 0.0 3.0 8 12
r 11.889051 1 2 ack 40 ------- 0 3.0 0.0 6 19
+ 11.889051 2 0 ack 40 ------- 0 3.0 0.0 6 19
- 11.889051 2 0 ack 40 ------- 0 3.0 0.0 6 19
r 11.939157 2 0 ack 40 ------- 0 3.0 0.0 6 19
+ 11.939157 0 2 tcp 1500 ------- 0 0.0 3.0 13 20
- 11.939157 0 2 tcp 1500 ------- 0 0.0 3.0 13 20
+ 11.939157 0 2 tcp 1500 ------- 0 0.0 3.0 14 21
- 11.943157 0 2 tcp 1500 ------- 0 0.0 3.0 14 21
r 11.993157 0 2 tcp 1500 ------- 0 0.0 3.0 13 20
+ 11.993157 2 1 tcp 1500 ------- 0 0.0 3.0 13 20
r 11.997157 0 2 tcp 1500 ------- 0 0.0 3.0 14 21
+ 11.997157 2 1 tcp 1500 ------- 0 0.0 3.0 14 21
d 11.997157 2 1 tcp 1500 ------- 0 0.0 3.0 14 21
r 12.253346 2 1 tcp 1500 ------- 0 0.0 3.0 7 11
+ 12.253346 1 3 tcp 1500 ------- 0 0.0 3.0 7 11
- 12.253346 1 3 tcp 1500 ------- 0 0.0 3.0 7 11
r 12.267346 1 3 tcp 1500 ------- 0 0.0 3.0 7 11
+ 12.267346 3 1 ack 40 ------- 0 3.0 0.0 7 22
- 12.267346 3 1 ack 40 ------- 0 3.0 0.0 7 22
r 12.277453 3 1 ack 40 ------- 0 3.0 0.0 7 22
+ 12.277453 1 2 ack 40 ------- 0 3.0 0.0 7 22
- 12.351664 1 2 ack 40 ------- 0 3.0 0.0 7 22
r 12.884997 1 2 ack 40 ------- 0 3.0 0.0 7 22
+ 12.884997 2 0 ack 40 ------- 0 3.0 0.0 7 22
- 12.884997 2 0 ack 40 ------- 0 3.0 0.0 7 22
r 12.935104 2 0 ack 40 ------- 0 3.0 0.0 7 22
+ 12.935104 0 2 tcp 1500 ------- 0 0.0 3.0 15 23
- 12.935104 0 2 tcp 1500 ------- 0 0.0 3.0 15 23
+ 12.935104 0 2 tcp 1500 ------- 0 0.0 3.0 16 24
- 12.939104 0 2 tcp 1500 ------- 0 0.0 3.0 16 24
r 12.989104 0 2 tcp 1500 ------- 0 0.0 3.0 15 23
+ 12.989104 2 1 tcp 1500 ------- 0 0.0 3.0 15 23
d 12.989104 2 1 tcp 1500 ------- 0 0.0 3.0 15 23
r 12.993104 0 2 tcp 1500 ------- 0 0.0 3.0 16 24
+ 12.993104 2 1 tcp 1500 ------- 0 0.0 3.0 16 24
d 12.993104 2 1 tcp 1500 ------- 0 0.0 3.0 16 24
- 13.003346 2 1 tcp 1500 ------- 0 0.0 3.0 9 15
r 13.503346 2 1 tcp 1500 ------- 0 0.0 3.0 8 12
+ 13.503346 1 3 tcp 1500 ------- 0 0.0 3.0 8 12
- 13.503346 1 3 tcp 1500 ------- 0 0.0 3.0 8 12
r 13.517346 1 3 tcp 1500 ------- 0 0.0 3.0 8 12
+ 13.517346 3 1 ack 40 ------- 0 3.0 0.0 8 25
- 13.517346 3 1 ack 40 ------- 0 3.0 0.0 8 25
r 13.527453 3 1 ack 40 ------- 0 3.0 0.0 8 25
+ 13.527453 1 2 ack 40 ------- 0 3.0 0.0 8 25
- 14.238464 1 2 ack 40 ------- 0 3.0 0.0 8 25
- 14.253346 2 1 tcp 1500 ------- 0 0.0 3.0 10 16
r 14.753346 2 1 tcp 1500 ------- 0 0.0 3.0 9 15
+ 14.753346 1 3 tcp 1500 ------- 0 0.0 3.0 9 15
- 14.753346 1 3 tcp 1500 ------- 0 0.0 3.0 9 15
r 14.767346 1 3 tcp 1500 ------- 0 0.0 3.0 9 15
+ 14.767346 3 1 ack 40 ------- 0 3.0 0.0 9 26
- 14.767346 3 1 ack 40 ------- 0 3.0 0.0 9 26
r 14.771798 1 2 ack 40 ------- 0 3.0 0.0 8 25
+ 14.771798 2 0 ack 40 ------- 0 3.0 0.0 8 25
- 14.771798 2 0 ack 40 ------- 0 3.0 0.0 8 25
r 14.777453 3 1 ack 40 ------- 0 3.0 0.0 9 26
+ 14.777453 1 2 ack 40 ------- 0 3.0 0.0 9 26
r 14.821904 2 0 ack 40 ------- 0 3.0 0.0 8 25
+ 14.821904 0 2 tcp 1500 ------- 0 0.0 3.0 17 27
- 14.821904 0 2 tcp 1500 ------- 0 0.0 3.0 17 27
+ 14.821904 0 2 tcp 1500 ------- 0 0.0 3.0 18 28
- 14.825904 0 2 tcp 1500 ------- 0 0.0 3.0 18 28
r 14.875904 0 2 tcp 1500 ------- 0 0.0 3.0 17 27
+ 14.875904 2 1 tcp 1500 ------- 0 0.0 3.0 17 27
r 14.879904 0 2 tcp 1500 ------- 0 0.0 3.0 18 28
+ 14.879904 2 1 tcp 1500 ------- 0 0.0 3.0 18 28
- 14.913205 1 2 ack 40 ------- 0 3.0 0.0 9 26
r 15.446539 1 2 ack 40 ------- 0 3.0 0.0 9 26
+ 15.446539 2 0 ack 40 ------- 0 3.0 0.0 9 26
- 15.446539 2 0 ack 40 ------- 0 3.0 0.0 9 26
r 15.496645 2 0 ack 40 ------- 0 3.0 0.0 9 26
+ 15.496645 0 2 tcp 1500 ------- 0 0.0 3.0 19 29
- 15.496645 0 2 tcp 1500 ------- 0 0.0 3.0 19 29
+ 15.496645 0 2 tcp 1500 ------- 0 0.0 3.0 20 30
- 15.500645 0 2 tcp 1500 ------- 0 0.0 3.0 20 30
- 15.503346 2 1 tcp 1500 ------- 0 0.0 3.0 11 17
r 15.550645 0 2 tcp 1500 ------- 0 0.0 3.0 19 29
+ 15.550645 2 1 tcp 1500 ------- 0 0.0 3.0 19 29
r 15.554645 0 2 tcp 1500 ------- 0 0.0 3.0 20 30
+ 15.554645 2 1 tcp 1500 ------- 0 0.0 3.0 20 30
d 15.554645 2 1 tcp 1500 ------- 0 0.0 3.0 20 30
r 16.003346 2 1 tcp 1500 ------- 0 0.0 3.0 10 16
+ 16.003346 1 3 tcp 1500 ------- 0 0.0 3.0 10 16
- 16.003346 1 3 tcp 1500 ------- 0 0.0 3.0 10 16
r 16.017346 1 3 tcp 1500 ------- 0 0.0 3.0 10 16
+ 16.017346 3 1 ack 40 ------- 0 3.0 0.0 10 31
- 16.017346 3 1 ack 40 ------- 0 3.0 0.0 10 31
r 16.027453 3 1 ack 40 ------- 0 3.0 0.0 10 31
+ 16.027453 1 2 ack 40 ------- 0 3.0 0.0 10 31
- 16.753346 2 1 tcp 1500 ------- 0 0.0 3.0 12 18
- 17.134747 1 2 ack 40 ------- 0 3.0 0.0 10 31
r 17.253346 2 1 tcp 1500 ------- 0 0.0 3.0 11 17
+ 17.253346 1 3 tcp 1500 ------- 0 0.0 3.0 11 17
- 17.253346 1 3 tcp 1500 ------- 0 0.0 3.0 11 17
r 17.267346 1 3 tcp 1500 ------- 0 0.0 3.0 11 17
+ 17.267346 3 1 ack 40 ------- 0 3.0 0.0 11 32
- 17.267346 3 1 ack 40 ------- 0 3.0 0.0 11 32
r 17.277453 3 1 ack 40 ------- 0 3.0 0.0 11 32
+ 17.277453 1 2 ack 40 ------- 0 3.0 0.0 11 32
- 17.277453 1 2 ack 40 ------- 0 3.0 0.0 11 32
r 17.66808 1 2 ack 40 ------- 0 3.0 0.0 10 31
+ 17.66808 2 0 ack 40 ------- 0 3.0 0.0 10 31
- 17.66808 2 0 ack 40 ------- 0 3.0 0.0 10 31
r 17.718187 2 0 ack 40 ------- 0 3.0 0.0 10 31
+ 17.718187 0 2 tcp 1500 ------- 0 0.0 3.0 21 33
- 17.718187 0 2 tcp 1500 ------- 0 0.0 3.0 21 33
+ 17.718187 0 2 tcp 1500 ------- 0 0.0 3.0 22 34
- 17.722187 0 2 tcp 1500 ------- 0 0.0 3.0 22 34
r 17.772187 0 2 tcp 1500 ------- 0 0.0 3.0 21 33
+ 17.772187 2 1 tcp 1500 ------- 0 0.0 3.0 21 33
r 17.776187 0 2 tcp 1500 ------- 0 0.0 3.0 22 34
+ 17.776187 2 1 tcp 1500 ------- 0 0.0 3.0 22 34
d 17.776187 2 1 tcp 1500 ------- 0 0.0 3.0 22 34
r 17.810786 1 2 ack 40 ------- 0 3.0 0.0 11 32
+ 17.810786 2 0 ack 40 ------- 0 3.0 0.0 11 32
- 17.810786 2 0 ack 40 ------- 0 3.0 0.0 11 32
r 17.860893 2 0 ack 40 ------- 0 3.0 0.0 11 32
+ 17.860893 0 2 tcp 1500 ------- 0 0.0 3.0 23 35
- 17.860893 0 2 tcp 1500 ------- 0 0.0 3.0 23 35
+ 17.860893 0 2 tcp 1500 ------- 0 0.0 3.0 24 36
- 17.864893 0 2 tcp 1500 ------- 0 0.0 3.0 24 36
r 17.914893 0 2 tcp 1500 ------- 0 0.0 3.0 23 35
+ 17.914893 2 1 tcp 1500 ------- 0 0.0 3.0 23 35
d 17.914893 2 1 tcp 1500 ------- 0 0.0 3.0 23 35
r 17.918893 0 2 tcp 1500 ------- 0 0.0 3.0 24 36
+ 17.918893 2 1 tcp 1500 ------- 0 0.0 3.0 24 36
d 17.918893 2 1 tcp 1500 ------- 0 0.0 3.0 24 36
- 18.003346 2 1 tcp 1500 ------- 0 0.0 3.0 13 20
r 18.503346 2 1 tcp 1500 ------- 0 0.0 3.0 12 18
+ 18.503346 1 3 tcp 1500 ------- 0 0.0 3.0 12 18
- 18.503346 1 3 tcp 1500 ------- 0 0.0 3.0 12 18
r 18.517346 1 3 tcp 1500 ------- 0 0.0 3.0 12 18
+ 18.517346 3 1 ack 40 ------- 0 3.0 0.0 12 37
- 18.517346 3 1 ack 40 ------- 0 3.0 0.0 12 37
r 18.527453 3 1 ack 40 ------- 0 3.0 0.0 12 37
+ 18.527453 1 2 ack 40 ------- 0 3.0 0.0 12 37
- 18.584963 1 2 ack 40 ------- 0 3.0 0.0 12 37
r 19.118297 1 2 ack 40 ------- 0 3.0 0.0 12 37
+ 19.118297 2 0 ack 40 ------- 0 3.0 0.0 12 37
- 19.118297 2 0 ack 40 ------- 0 3.0 0.0 12 37
r 19.168403 2 0 ack 40 ------- 0 3.0 0.0 12 37
+ 19.168403 0 2 tcp 1500 ------- 0 0.0 3.0 25 38
- 19.168403 0 2 tcp 1500 ------- 0 0.0 3.0 25 38
+ 19.168403 0 2 tcp 1500 ------- 0 0.0 3.0 26 39
- 19.172403 0 2 tcp 1500 ------- 0 0.0 3.0 26 39
r 19.222403 0 2 tcp 1500 ------- 0 0.0 3.0 25 38
+ 19.222403 2 1 tcp 1500 ------- 0 0.0 3.0 25 38
r 19.226403 0 2 tcp 1500 ------- 0 0.0 3.0 26 39
+ 19.226403 2 1 tcp 1500 ------- 0 0.0 3.0 26 39
d 19.226403 2 1 tcp 1500 ------- 0 0.0 3.0 26 39
- 19.253346 2 1 tcp 1500 ------- 0 0.0 3.0 17 27
r 19.753346 2 1 tcp 1500 ------- 0 0.0 3.0 13 20
+ 19.753346 1 3 tcp 1500 ------- 0 0.0 3.0 13 20
- 19.753346 1 3 tcp 1500 ------- 0 0.0 3.0 13 20
r 19.767346 1 3 tcp 1500 ------- 0 0.0 3.0 13 20
+ 19.767346 3 1 ack 40 ------- 0 3.0 0.0 13 40
- 19.767346 3 1 ack 40 ------- 0 3.0 0.0 13 40
r 19.777453 3 1 ack 40 ------- 0 3.0 0.0 13 40
+ 19.777453 1 2 ack 40 ------- 0 3.0 0.0 13 40
- 20.503346 2 1 tcp 1500 ------- 0 0.0 3.0 18 28
r 21.003346 2 1 tcp 1500 ------- 0 0.0 3.0 17 27
+ 21.003346 1 3 tcp 1500 ------- 0 0.0 3.0 17 27
- 21.003346 1 3 tcp 1500 ------- 0 0.0 3.0 17 27
r 21.017346 1 3 tcp 1500 ------- 0 0.0 3.0 17 27
+ 21.017346 3 1 ack 48 ------- 0 3.0 0.0 13 41
- 21.017346 3 1 ack 48 ------- 0 3.0 0.0 13 41
r 21.027474 3 1 ack 48 ------- 0 3.0 0.0 13 41
+ 21.027474 1 2 ack 48 ------- 0 3.0 0.0 13 41
- 21.753346 2 1 tcp 1500 ------- 0 0.0 3.0 19 29
- 22.041172 1 2 ack 40 ------- 0 3.0 0.0 13 40
- 22.074505 1 2 ack 48 ------- 0 3.0 0.0 13 41
r 22.253346 2 1 tcp 1500 ------- 0 0.0 3.0 18 28
+ 22.253346 1 3 tcp 1500 ------- 0 0.0 3.0 18 28
- 22.253346 1 3 tcp 1500 ------- 0 0.0 3.0 18 28
r 22.267346 1 3 tcp 1500 ------- 0 0.0 3.0 18 28
+ 22.267346 3 1 ack 48 ------- 0 3.0 0.0 13 42
- 22.267346 3 1 ack 48 ------- 0 3.0 0.0 13 42
r 22.277474 3 1 ack 48 ------- 0 3.0 0.0 13 42
+ 22.277474 1 2 ack 48 ------- 0 3.0 0.0 13 42
r 22.574505 1 2 ack 40 ------- 0 3.0 0.0 13 40
+ 22.574505 2 0 ack 40 ------- 0 3.0 0.0 13 40
- 22.574505 2 0 ack 40 ------- 0 3.0 0.0 13 40
r 22.614505 1 2 ack 48 ------- 0 3.0 0.0 13 41
+ 22.614505 2 0 ack 48 ------- 0 3.0 0.0 13 41
- 22.614505 2 0 ack 48 ------- 0 3.0 0.0 13 41
r 22.624612 2 0 ack 40 ------- 0 3.0 0.0 13 40
+ 22.624612 0 2 tcp 1500 ------- 0 0.0 3.0 27 43
- 22.624612 0 2 tcp 1500 ------- 0 0.0 3.0 27 43
+ 22.624612 0 2 tcp 1500 ------- 0 0.0 3.0 28 44
- 22.628612 0 2 tcp 1500 ------- 0 0.0 3.0 28 44
r 22.664633 2 0 ack 48 ------- 0 3.0 0.0 13 41
+ 22.664633 0 2 tcp 1500 ------- 0 0.0 3.0 29 45
- 22.664633 0 2 tcp 1500 ------- 0 0.0 3.0 29 45
r 22.678612 0 2 tcp 1500 ------- 0 0.0 3.0 27 43
+ 22.678612 2 1 tcp 1500 ------- 0 0.0 3.0 27 43
r 22.682612 0 2 tcp 1500 ------- 0 0.0 3.0 28 44
+ 22.682612 2 1 tcp 1500 ------- 0 0.0 3.0 28 44
r 22.718633 0 2 tcp 1500 ------- 0 0.0 3.0 29 45
+ 22.718633 2 1 tcp 1500 ------- 0 0.0 3.0 29 45
- 22.956826 1 2 ack 48 ------- 0 3.0 0.0 13 42
- 23.003346 2 1 tcp 1500 ------- 0 0.0 3.0 21 33
r 23.496826 1 2 ack 48 ------- 0 3.0 0.0 13 42
+ 23.496826 2 0 ack 48 ------- 0 3.0 0.0 13 42
- 23.496826 2 0 ack 48 ------- 0 3.0 0.0 13 42
r 23.503346 2 1 tcp 1500 ------- 0 0.0 3.0 19 29
+ 23.503346 1 3 tcp 1500 ------- 0 0.0 3.0 19 29
- 23.503346 1 3 tcp 1500 ------- 0 0.0 3.0 19 29
r 23.517346 1 3 tcp 1500 ------- 0 0.0 3.0 19 29
+ 23.517346 3 1 ack 48 ------- 0 3.0 0.0 13 46
- 23.517346 3 1 ack 48 ------- 0 3.0 0.0 13 46
r 23.527474 3 1 ack 48 ------- 0 3.0 0.0 13 46
+ 23.527474 1 2 ack 48 ------- 0 3.0 0.0 13 46
r 23.546954 2 0 ack 48 ------- 0 3.0 0.0 13 42
+ 23.546954 0 2 tcp 1500 ------- 0 0.0 3.0 30 47
- 23.546954 0 2 tcp 1500 ------- 0 0.0 3.0 30 47
- 23.593295 1 2 ack 48 ------- 0 3.0 0.0 13 46
r 23.600954 0 2 tcp 1500 ------- 0 0.0 3.0 30 47
+ 23.600954 2 1 tcp 1500 ------- 0 0.0 3.0 30 47
r 24.133295 1 2 ack 48 ------- 0 3.0 0.0 13 46
+ 24.133295 2 0 ack 48 ------- 0 3.0 0.0 13 46
- 24.133295 2 0 ack 48 ------- 0 3.0 0.0 13 46
r 24.183423 2 0 ack 48 ------- 0 3.0 0.0 13 46
+ 24.183423 0 2 tcp 1500 ---A--- 0 0.0 3.0 14 48
- 24.183423 0 2 tcp 1500 ---A--- 0 0.0 3.0 14 48
r 24.237423 0 2 tcp 1500 ---A--- 0 0.0 3.0 14 48
+ 24.237423 2 1 tcp 1500 ---A--- 0 0.0 3.0 14 48
d 24.237423 2 1 tcp 1500 ---A--- 0 0.0 3.0 14 48
- 24.253346 2 1 tcp 1500 ------- 0 0.0 3.0 25 38
r 24.753346 2 1 tcp 1500 ------- 0 0.0 3.0 21 33
+ 24.753346 1 3 tcp 1500 ------- 0 0.0 3.0 21 33
- 24.753346 1 3 tcp 1500 ------- 0 0.0 3.0 21 33
r 24.767346 1 3 tcp 1500 ------- 0 0.0 3.0 21 33
+ 24.767346 3 1 ack 56 ------- 0 3.0 0.0 13 49
- 24.767346 3 1 ack 56 ------- 0 3.0 0.0 13 49
r 24.777496 3 1 ack 56 ------- 0 3.0 0.0 13 49
+ 24.777496 1 2 ack 56 ------- 0 3.0 0.0 13 49
- 25.204521 1 2 ack 56 ------- 0 3.0 0.0 13 49
- 25.503346 2 1 tcp 1500 ------- 0 0.0 3.0 27 43
r 25.751188 1 2 ack 56 ------- 0 3.0 0.0 13 49
+ 25.751188 2 0 ack 56 ------- 0 3.0 0.0 13 49
- 25.751188 2 0 ack 56 ------- 0 3.0 0.0 13 49
r 25.801337 2 0 ack 56 ------- 0 3.0 0.0 13 49
r 26.003346 2 1 tcp 1500 ------- 0 0.0 3.0 25 38
+ 26.003346 1 3 tcp 1500 ------- 0 0.0 3.0 25 38
- 26.003346 1 3 tcp 1500 ------- 0 0.0 3.0 25 38
r 26.017346 1 3 tcp 1500 ------- 0 0.0 3.0 25 38
+ 26.017346 3 1 ack 64 ------- 0 3.0 0.0 13 50
- 26.017346 3 1 ack 64 ------- 0 3.0 0.0 13 50
r 26.027517 3 1 ack 64 ------- 0 3.0 0.0 13 50
+ 26.027517 1 2 ack 64 ------- 0 3.0 0.0 13 50
- 26.753346 2 1 tcp 1500 ------- 0 0.0 3.0 28 44
- 26.867946 1 2 ack 64 ------- 0 3.0 0.0 13 50
r 27.253346 2 1 tcp 1500 ------- 0 0.0 3.0 27 43
+ 27.253346 1 3 tcp 1500 ------- 0 0.0 3.0 27 43
- 27.253346 1 3 tcp 1500 ------- 0 0.0 3.0 27 43
r 27.267346 1 3 tcp 1500 ------- 0 0.0 3.0 27 43
+ 27.267346 3 1 ack 64 ------- 0 3.0 0.0 13 51
- 27.267346 3 1 ack 64 ------- 0 3.0 0.0 13 51
r 27.277517 3 1 ack 64 ------- 0 3.0 0.0 13 51
+ 27.277517 1 2 ack 64 ------- 0 3.0 0.0 13 51
- 27.406452 1 2 ack 64 ------- 0 3.0 0.0 13 51
r 27.421279 1 2 ack 64 ------- 0 3.0 0.0 13 50
+ 27.421279 2 0 ack 64 ------- 0 3.0 0.0 13 50
- 27.421279 2 0 ack 64 ------- 0 3.0 0.0 13 50
r 27.47145 2 0 ack 64 ------- 0 3.0 0.0 13 50
r 27.959785 1 2 ack 64 ------- 0 3.0 0.0 13 51
+ 27.959785 2 0 ack 64 ------- 0 3.0 0.0 13 51
- 27.959785 2 0 ack 64 ------- 0 3.0 0.0 13 51
- 28.003346 2 1 tcp 1500 ------- 0 0.0 3.0 29 45
r 28.009956 2 0 ack 64 ------- 0 3.0 0.0 13 51
r 28.503346 2 1 tcp 1500 ------- 0 0.0 3.0 28 44
+ 28.503346 1 3 tcp 1500 ------- 0 0.0 3.0 28 44
- 28.503346 1 3 tcp 1500 ------- 0 0.0 3.0 28 44
r 28.517346 1 3 tcp 1500 ------- 0 0.0 3.0 28 44
+ 28.517346 3 1 ack 64 ------- 0 3.0 0.0 13 52
- 28.517346 3 1 ack 64 ------- 0 3.0 0.0 13 52
r 28.527517 3 1 ack 64 ------- 0 3.0 0.0 13 52
+ 28.527517 1 2 ack 64 ------- 0 3.0 0.0 13 52
- 29.253346 2 1 tcp 1500 ------- 0 0.0 3.0 30 47
- 29.388463 1 2 ack 64 ------- 0 3.0 0.0 13 52
r 29.753346 2 1 tcp 1500 ------- 0 0.0 3.0 29 45
+ 29.753346 1 3 tcp 1500 ------- 0 0.0 3.0 29 45
- 29.753346 1 3 tcp 1500 ------- 0 0.0 3.0 29 45
r 29.767346 1 3 tcp 1500 ------- 0 0.0 3.0 29 45
+ 29.767346 3 1 ack 64 ------- 0 3.0 0.0 13 53
- 29.767346 3 1 ack 64 ------- 0 3.0 0.0 13 53
r 29.777517 3 1 ack 64 ------- 0 3.0 0.0 13 53
+ 29.777517 1 2 ack 64 ------- 0 3.0 0.0 13 53
r 29.941796 1 2 ack 64 ------- 0 3.0 0.0 13 52
+ 29.941796 2 0 ack 64 ------- 0 3.0 0.0 13 52
- 29.941796 2 0 ack 64 ------- 0 3.0 0.0 13 52
r 29.991967 2 0 ack 64 ------- 0 3.0 0.0 13 52
- 30.974008 1 2 ack 64 ------- 0 3.0 0.0 13 53
r 31.003346 2 1 tcp 1500 ------- 0 0.0 3.0 30 47
+ 31.003346 1 3 tcp 1500 ------- 0 0.0 3.0 30 47
- 31.003346 1 3 tcp 1500 ------- 0 0.0 3.0 30 47
r 31.017346 1 3 tcp 1500 ------- 0 0.0 3.0 30 47
+ 31.017346 3 1 ack 64 ------- 0 3.0 0.0 13 54
- 31.017346 3 1 ack 64 ------- 0 3.0 0.0 13 54
r 31.027517 3 1 ack 64 ------- 0 3.0 0.0 13 54
+ 31.027517 1 2 ack 64 ------- 0 3.0 0.0 13 54
- 31.027517 1 2 ack 64 ------- 0 3.0 0.0 13 54
r 31.527341 1 2 ack 64 ------- 0 3.0 0.0 13 53
+ 31.527341 2 0 ack 64 ------- 0 3.0 0.0 13 53
- 31.527341 2 0 ack 64 ------- 0 3.0 0.0 13 53
r 31.577512 2 0 ack 64 ------- 0 3.0 0.0 13 53
r 31.58085 1 2 ack 64 ------- 0 3.0 0.0 13 54
+ 31.58085 2 0 ack 64 ------- 0 3.0 0.0 13 54
- 31.58085 2 0 ack 64 ------- 0 3.0 0.0 13 54
r 31.631021 2 0 ack 64 ------- 0 3.0 0.0 13 54
+ 32.103423 0 2 tcp 1500 ---A--- 0 0.0 3.0 14 55
- 32.103423 0 2 tcp 1500 ---A--- 0 0.0 3.0 14 55
r 32.157423 0 2 tcp 1500 ---A--- 0 0.0 3.0 14 55
+ 32.157423 2 1 tcp 1500 ---A--- 0 0.0 3.0 14 55
- 32.157423 2 1 tcp 1500 ---A--- 0 0.0 3.0 14 55
r 33.907423 2 1 tcp 1500 ---A--- 0 0.0 3.0 14 55
+ 33.907423 1 3 tcp 1500 ---A--- 0 0.0 3.0 14 55
- 33.907423 1 3 tcp 1500 ---A--- 0 0.0 3.0 14 55
r 33.921423 1 3 tcp 1500 ---A--- 0 0.0 3.0 14 55
+ 33.921423 3 1 ack 64 ------- 0 3.0 0.0 14 56
- 33.921423 3 1 ack 64 ------- 0 3.0 0.0 14 56
r 33.931594 3 1 ack 64 ------- 0 3.0 0.0 14 56
+ 33.931594 1 2 ack 64 ------- 0 3.0 0.0 14 56
- 34.246306 1 2 ack 64 ------- 0 3.0 0.0 14 56
r 34.799639 1 2 ack 64 ------- 0 3.0 0.0 14 56
+ 34.799639 2 0 ack 64 ------- 0 3.0 0.0 14 56
- 34.799639 2 0 ack 64 ------- 0 3.0 0.0 14 56
r 34.84981 2 0 ack 64 ------- 0 3.0 0.0 14 56
+ 34.84981 0 2 tcp 1500 ------- 0 0.0 3.0 15 57
- 34.84981 0 2 tcp 1500 ------- 0 0.0 3.0 15 57
+ 34.84981 0 2 tcp 1500 ------- 0 0.0 3.0 16 58
- 34.85381 0 2 tcp 1500 ------- 0 0.0 3.0 16 58
r 34.90381 0 2 tcp 1500 ------- 0 0.0 3.0 15 57
+ 34.90381 2 1 tcp 1500 ------- 0 0.0 3.0 15 57
r 34.90781 0 2 tcp 1500 ------- 0 0.0 3.0 16 58
+ 34.90781 2 1 tcp 1500 ------- 0 0.0 3.0 16 58
- 35.050792 2 1 tcp 1500 ------- 0 0.0 3.0 15 57
- 36.300792 2 1 tcp 1500 ------- 0 0.0 3.0 16 58
r 36.800792 2 1 tcp 1500 ------- 0 0.0 3.0 15 57
+ 36.800792 1 3 tcp 1500 ------- 0 0.0 3.0 15 57
- 36.800792 1 3 tcp 1500 ------- 0 0.0 3.0 15 57
r 36.814792 1 3 tcp 1500 ------- 0 0.0 3.0 15 57
+ 36.814792 3 1 ack 64 ------- 0 3.0 0.0 15 59
- 36.814792 3 1 ack 64 ------- 0 3.0 0.0 15 59
r 36.824962 3 1 ack 64 ------- 0 3.0 0.0 15 59
+ 36.824962 1 2 ack 64 ------- 0 3.0 0.0 15 59
- 36.876063 1 2 ack 64 ------- 0 3.0 0.0 15 59
r 37.429396 1 2 ack 64 ------- 0 3.0 0.0 15 59
+ 37.429396 2 0 ack 64 ------- 0 3.0 0.0 15 59
- 37.429396 2 0 ack 64 ------- 0 3.0 0.0 15 59
r 37.479567 2 0 ack 64 ------- 0 3.0 0.0 15 59
+ 37.479567 0 2 tcp 1500 ------- 0 0.0 3.0 17 60
- 37.479567 0 2 tcp 1500 ------- 0 0.0 3.0 17 60
+ 37.479567 0 2 tcp 1500 ------- 0 0.0 3.0 18 61
- 37.483567 0 2 tcp 1500 ------- 0 0.0 3.0 18 61
r 37.533567 0 2 tcp 1500 ------- 0 0.0 3.0 17 60
+ 37.533567 2 1 tcp 1500 ------- 0 0.0 3.0 17 60
r 37.537567 0 2 tcp 1500 ------- 0 0.0 3.0 18 61
+ 37.537567 2 1 tcp 1500 ------- 0 0.0 3.0 18 61
- 37.556336 2 1 tcp 1500 ------- 0 0.0 3.0 17 60
r 38.050792 2 1 tcp 1500 ------- 0 0.0 3.0 16 58
+ 38.050792 1 3 tcp 1500 ------- 0 0.0 3.0 16 58
- 38.050792 1 3 tcp 1500 ------- 0 0.0 3.0 16 58
r 38.064792 1 3 tcp 1500 ------- 0 0.0 3.0 16 58
+ 38.064792 3 1 ack 64 ------- 0 3.0 0.0 19 62
- 38.064792 3 1 ack 64 ------- 0 3.0 0.0 19 62
r 38.074962 3 1 ack 64 ------- 0 3.0 0.0 19 62
+ 38.074962 1 2 ack 64 ------- 0 3.0 0.0 19 62
- 38.185278 1 2 ack 64 ------- 0 3.0 0.0 19 62
r 38.738612 1 2 ack 64 ------- 0 3.0 0.0 19 62
+ 38.738612 2 0 ack 64 ------- 0 3.0 0.0 19 62
- 38.738612 2 0 ack 64 ------- 0 3.0 0.0 19 62
r 38.788782 2 0 ack 64 ------- 0 3.0 0.0 19 62
+ 38.788782 0 2 tcp 1500 ------- 0 0.0 3.0 20 63
- 38.788782 0 2 tcp 1500 ------- 0 0.0 3.0 20 63
+ 38.788782 0 2 tcp 1500 ------- 0 0.0 3.0 21 64
+ 38.788782 0 2 tcp 1500 ------- 0 0.0 3.0 22 65
- 38.792782 0 2 tcp 1500 ------- 0 0.0 3.0 21 64
- 38.796782 0 2 tcp 1500 ------- 0 0.0 3.0 22 65
- 38.806336 2 1 tcp 1500 ------- 0 0.0 3.0 18 61
r 38.842782 0 2 tcp 1500 ------- 0 0.0 3.0 20 63
+ 38.842782 2 1 tcp 1500 ------- 0 0.0 3.0 20 63
r 38.846782 0 2 tcp 1500 ------- 0 0.0 3.0 21 64
+ 38.846782 2 1 tcp 1500 ------- 0 0.0 3.0 21 64
r 38.850782 0 2 tcp 1500 ------- 0 0.0 3.0 22 65
+ 38.850782 2 1 tcp 1500 ------- 0 0.0 3.0 22 65
r 39.306336 2 1 tcp 1500 ------- 0 0.0 3.0 17 60
+ 39.306336 1 3 tcp 1500 ------- 0 0.0 3.0 17 60
- 39.306336 1 3 tcp 1500 ------- 0 0.0 3.0 17 60
r 39.320336 1 3 tcp 1500 ------- 0 0.0 3.0 17 60
+ 39.320336 3 1 ack 64 ------- 0 3.0 0.0 19 66
- 39.320336 3 1 ack 64 ------- 0 3.0 0.0 19 66
r 39.330507 3 1 ack 64 ------- 0 3.0 0.0 19 66
+ 39.330507 1 2 ack 64 ------- 0 3.0 0.0 19 66
- 39.432433 1 2 ack 64 ------- 0 3.0 0.0 19 66
r 39.985767 1 2 ack 64 ------- 0 3.0 0.0 19 66
+ 39.985767 2 0 ack 64 ------- 0 3.0 0.0 19 66
- 39.985767 2 0 ack 64 ------- 0 3.0 0.0 19 66
r 40.035937 2 0 ack 64 ------- 0 3.0 0.0 19 66
+ 40.035937 0 2 tcp 1500 ------- 0 0.0 3.0 23 67
- 40.035937 0 2 tcp 1500 ------- 0 0.0 3.0 23 67
- 40.056336 2 1 tcp 1500 ------- 0 0.0 3.0 20 63
r 40.089937 0 2 tcp 1500 ------- 0 0.0 3.0 23 67
+ 40.089937 2 1 tcp 1500 ------- 0 0.0 3.0 23 67
r 40.556336 2 1 tcp 1500 ------- 0 0.0 3.0 18 61
+ 40.556336 1 3 tcp 1500 ------- 0 0.0 3.0 18 61
- 40.556336 1 3 tcp 1500 ------- 0 0.0 3.0 18 61
r 40.570336 1 3 tcp 1500 ------- 0 0.0 3.0 18 61
+ 40.570336 3 1 ack 64 ------- 0 3.0 0.0 19 68
- 40.570336 3 1 ack 64 ------- 0 3.0 0.0 19 68
r 40.580507 3 1 ack 64 ------- 0 3.0 0.0 19 68
+ 40.580507 1 2 ack 64 ------- 0 3.0 0.0 19 68
- 41.306336 2 1 tcp 1500 ------- 0 0.0 3.0 21 64
- 41.529105 1 2 ack 64 ------- 0 3.0 0.0 19 68
r 41.806336 2 1 tcp 1500 ------- 0 0.0 3.0 20 63
+ 41.806336 1 3 tcp 1500 ------- 0 0.0 3.0 20 63
- 41.806336 1 3 tcp 1500 ------- 0 0.0 3.0 20 63
r 41.820336 1 3 tcp 1500 ------- 0 0.0 3.0 20 63
+ 41.820336 3 1 ack 56 ------- 0 3.0 0.0 21 69
- 41.820336 3 1 ack 56 ------- 0 3.0 0.0 21 69
r 41.830485 3 1 ack 56 ------- 0 3.0 0.0 21 69
+ 41.830485 1 2 ack 56 ------- 0 3.0 0.0 21 69
r 42.082439 1 2 ack 64 ------- 0 3.0 0.0 19 68
+ 42.082439 2 0 ack 64 ------- 0 3.0 0.0 19 68
- 42.082439 2 0 ack 64 ------- 0 3.0 0.0 19 68
r 42.132609 2 0 ack 64 ------- 0 3.0 0.0 19 68
- 42.322765 1 2 ack 56 ------- 0 3.0 0.0 21 69
- 42.556336 2 1 tcp 1500 ------- 0 0.0 3.0 22 65
r 42.869432 1 2 ack 56 ------- 0 3.0 0.0 21 69
+ 42.869432 2 0 ack 56 ------- 0 3.0 0.0 21 69
- 42.869432 2 0 ack 56 ------- 0 3.0 0.0 21 69
r 42.919581 2 0 ack 56 ------- 0 3.0 0.0 21 69
+ 42.919581 0 2 tcp 1500 ------- 0 0.0 3.0 24 70
- 42.919581 0 2 tcp 1500 ------- 0 0.0 3.0 24 70
r 42.973581 0 2 tcp 1500 ------- 0 0.0 3.0 24 70
+ 42.973581 2 1 tcp 1500 ------- 0 0.0 3.0 24 70
r 43.056336 2 1 tcp 1500 ------- 0 0.0 3.0 21 64
+ 43.056336 1 3 tcp 1500 ------- 0 0.0 3.0 21 64
- 43.056336 1 3 tcp 1500 ------- 0 0.0 3.0 21 64
r 43.070336 1 3 tcp 1500 ------- 0 0.0 3.0 21 64
+ 43.070336 3 1 ack 56 ------- 0 3.0 0.0 21 71
- 43.070336 3 1 ack 56 ------- 0 3.0 0.0 21 71
r 43.080485 3 1 ack 56 ------- 0 3.0 0.0 21 71
+ 43.080485 1 2 ack 56 ------- 0 3.0 0.0 21 71
- 43.631473 1 2 ack 56 ------- 0 3.0 0.0 21 71
- 43.806336 2 1 tcp 1500 ------- 0 0.0 3.0 23 67
r 44.178139 1 2 ack 56 ------- 0 3.0 0.0 21 71
+ 44.178139 2 0 ack 56 ------- 0 3.0 0.0 21 71
- 44.178139 2 0 ack 56 ------- 0 3.0 0.0 21 71
r 44.228289 2 0 ack 56 ------- 0 3.0 0.0 21 71
+ 44.228289 0 2 tcp 1500 ------- 0 0.0 3.0 25 72
- 44.228289 0 2 tcp 1500 ------- 0 0.0 3.0 25 72
r 44.282289 0 2 tcp 1500 ------- 0 0.0 3.0 25 72
+ 44.282289 2 1 tcp 1500 ------- 0 0.0 3.0 25 72
r 44.306336 2 1 tcp 1500 ------- 0 0.0 3.0 22 65
+ 44.306336 1 3 tcp 1500 ------- 0 0.0 3.0 22 65
- 44.306336 1 3 tcp 1500 ------- 0 0.0 3.0 22 65
r 44.320336 1 3 tcp 1500 ------- 0 0.0 3.0 22 65
+ 44.320336 3 1 ack 56 ------- 0 3.0 0.0 22 73
- 44.320336 3 1 ack 56 ------- 0 3.0 0.0 22 73
r 44.330485 3 1 ack 56 ------- 0 3.0 0.0 22 73
+ 44.330485 1 2 ack 56 ------- 0 3.0 0.0 22 73
- 45.056336 2 1 tcp 1500 ------- 0 0.0 3.0 24 70
r 45.556336 2 1 tcp 1500 ------- 0 0.0 3.0 23 67
+ 45.556336 1 3 tcp 1500 ------- 0 0.0 3.0 23 67
- 45.556336 1 3 tcp 1500 ------- 0 0.0 3.0 23 67
r 45.570336 1 3 tcp 1500 ------- 0 0.0 3.0 23 67
+ 45.570336 3 1 ack 56 ------- 0 3.0 0.0 23 74
- 45.570336 3 1 ack 56 ------- 0 3.0 0.0 23 74
r 45.580485 3 1 ack 56 ------- 0 3.0 0.0 23 74
+ 45.580485 1 2 ack 56 ------- 0 3.0 0.0 23 74
- 46.039265 1 2 ack 56 ------- 0 3.0 0.0 22 73
- 46.085932 1 2 ack 56 ------- 0 3.0 0.0 23 74
- 46.306336 2 1 tcp 1500 ------- 0 0.0 3.0 25 72
r 46.585932 1 2 ack 56 ------- 0 3.0 0.0 22 73
+ 46.585932 2 0 ack 56 ------- 0 3.0 0.0 22 73
- 46.585932 2 0 ack 56 ------- 0 3.0 0.0 22 73
r 46.632599 1 2 ack 56 ------- 0 3.0 0.0 23 74
+ 46.632599 2 0 ack 56 ------- 0 3.0 0.0 23 74
- 46.632599 2 0 ack 56 ------- 0 3.0 0.0 23 74
r 46.636081 2 0 ack 56 ------- 0 3.0 0.0 22 73
r 46.682748 2 0 ack 56 ------- 0 3.0 0.0 23 74
+ 46.682748 0 2 tcp 1500 ------- 0 0.0 3.0 26 75
- 46.682748 0 2 tcp 1500 ------- 0 0.0 3.0 26 75