+ 0 1 3 ping 750 ------- 0 1.0 5.0 -1 0
- 0 1 3 ping 750 ------- 0 1.0 5.0 -1 0
+ 0 2 3 cbr 750 ------- 1 2.0 6.0 0 1
- 0 2 3 cbr 750 ------- 1 2.0 6.0 0 1
+ 0.007 1 3 ping 750 ------- 0 1.0 5.0 -1 2
- 0.007 1 3 ping 750 ------- 0 1.0 5.0 -1 2
r 0.007 1 3 ping 750 ------- 0 1.0 5.0 -1 0
+ 0.007 3 4 ping 750 ------- 0 1.0 5.0 -1 0
- 0.007 3 4 ping 750 ------- 0 1.0 5.0 -1 0
r 0.007 2 3 cbr 750 ------- 1 2.0 6.0 0 1
+ 0.007 3 4 cbr 750 ------- 1 2.0 6.0 0 1
+ 0.007 2 3 cbr 750 ------- 1 2.0 6.0 1 3
- 0.007 2 3 cbr 750 ------- 1 2.0 6.0 1 3
- 0.011 3 4 cbr 750 ------- 1 2.0 6.0 0 1
r 0.012 3 4 ping 750 ------- 0 1.0 5.0 -1 0
+ 0.012 4 5 ping 750 ------- 0 1.0 5.0 -1 0
- 0.012 4 5 ping 750 ------- 0 1.0 5.0 -1 0
+ 0.014 1 3 ping 750 ------- 0 1.0 5.0 -1 4
- 0.014 1 3 ping 750 ------- 0 1.0 5.0 -1 4
r 0.014 1 3 ping 750 ------- 0 1.0 5.0 -1 2
+ 0.014 3 4 ping 750 ------- 0 1.0 5.0 -1 2
r 0.014 2 3 cbr 750 ------- 1 2.0 6.0 1 3
+ 0.014 3 4 cbr 750 ------- 1 2.0 6.0 1 3
+ 0.014 2 3 cbr 750 ------- 1 2.0 6.0 2 5
- 0.014 2 3 cbr 750 ------- 1 2.0 6.0 2 5
- 0.015 3 4 ping 750 ------- 0 1.0 5.0 -1 2
r 0.016 3 4 cbr 750 ------- 1 2.0 6.0 0 1
+ 0.016 4 6 cbr 750 ------- 1 2.0 6.0 0 1
- 0.016 4 6 cbr 750 ------- 1 2.0 6.0 0 1
r 0.019 4 5 ping 750 ------- 0 1.0 5.0 -1 0
+ 0.019 5 4 ping 64 ------- 0 5.0 1.0 -1 6
- 0.019 5 4 ping 64 ------- 0 5.0 1.0 -1 6
- 0.019 3 4 cbr 750 ------- 1 2.0 6.0 1 3
r 0.02 3 4 ping 750 ------- 0 1.0 5.0 -1 2
+ 0.02 4 5 ping 750 ------- 0 1.0 5.0 -1 2
- 0.02 4 5 ping 750 ------- 0 1.0 5.0 -1 2
r 0.020512 5 4 ping 64 ------- 0 5.0 1.0 -1 6
+ 0.020512 4 3 ping 64 ------- 0 5.0 1.0 -1 6
- 0.020512 4 3 ping 64 ------- 0 5.0 1.0 -1 6
+ 0.021 1 3 ping 750 ------- 0 1.0 5.0 -1 7
- 0.021 1 3 ping 750 ------- 0 1.0 5.0 -1 7
r 0.021 1 3 ping 750 ------- 0 1.0 5.0 -1 4
+ 0.021 3 4 ping 750 ------- 0 1.0 5.0 -1 4
r 0.021 2 3 cbr 750 ------- 1 2.0 6.0 2 5
+ 0.021 3 4 cbr 750 ------- 1 2.0 6.0 2 5
+ 0.021 2 3 cbr 750 ------- 1 2.0 6.0 3 8
- 0.021 2 3 cbr 750 ------- 1 2.0 6.0 3 8
r 0.021853 4 3 ping 64 ------- 0 5.0 1.0 -1 6
+ 0.021853 3 1 ping 64 ------- 0 5.0 1.0 -1 6
- 0.021853 3 1 ping 64 ------- 0 5.0 1.0 -1 6
r 0.023 4 6 cbr 750 ------- 1 2.0 6.0 0 1
- 0.023 3 4 ping 750 ------- 0 1.0 5.0 -1 4
r 0.023365 3 1 ping 64 ------- 0 5.0 1.0 -1 6
r 0.024 3 4 cbr 750 ------- 1 2.0 6.0 1 3
+ 0.024 4 6 cbr 750 ------- 1 2.0 6.0 1 3
- 0.024 4 6 cbr 750 ------- 1 2.0 6.0 1 3
r 0.027 4 5 ping 750 ------- 0 1.0 5.0 -1 2
+ 0.027 5 4 ping 64 ------- 0 5.0 1.0 -1 9
- 0.027 5 4 ping 64 ------- 0 5.0 1.0 -1 9
- 0.027 3 4 cbr 750 ------- 1 2.0 6.0 2 5
+ 0.028 1 3 ping 750 ------- 0 1.0 5.0 -1 10
- 0.028 1 3 ping 750 ------- 0 1.0 5.0 -1 10
r 0.028 1 3 ping 750 ------- 0 1.0 5.0 -1 7
+ 0.028 3 4 ping 750 ------- 0 1.0 5.0 -1 7
r 0.028 2 3 cbr 750 ------- 1 2.0 6.0 3 8
+ 0.028 3 4 cbr 750 ------- 1 2.0 6.0 3 8
+ 0.028 2 3 cbr 750 ------- 1 2.0 6.0 4 11
- 0.028 2 3 cbr 750 ------- 1 2.0 6.0 4 11
r 0.028 3 4 ping 750 ------- 0 1.0 5.0 -1 4
+ 0.028 4 5 ping 750 ------- 0 1.0 5.0 -1 4
- 0.028 4 5 ping 750 ------- 0 1.0 5.0 -1 4
r 0.028512 5 4 ping 64 ------- 0 5.0 1.0 -1 9
+ 0.028512 4 3 ping 64 ------- 0 5.0 1.0 -1 9
- 0.028512 4 3 ping 64 ------- 0 5.0 1.0 -1 9
r 0.029853 4 3 ping 64 ------- 0 5.0 1.0 -1 9
+ 0.029853 3 1 ping 64 ------- 0 5.0 1.0 -1 9
- 0.029853 3 1 ping 64 ------- 0 5.0 1.0 -1 9
r 0.031 4 6 cbr 750 ------- 1 2.0 6.0 1 3
- 0.031 3 4 ping 750 ------- 0 1.0 5.0 -1 7
r 0.031365 3 1 ping 64 ------- 0 5.0 1.0 -1 9
r 0.032 3 4 cbr 750 ------- 1 2.0 6.0 2 5
+ 0.032 4 6 cbr 750 ------- 1 2.0 6.0 2 5
- 0.032 4 6 cbr 750 ------- 1 2.0 6.0 2 5
+ 0.035 1 3 ping 750 ------- 0 1.0 5.0 -1 12
- 0.035 1 3 ping 750 ------- 0 1.0 5.0 -1 12
r 0.035 1 3 ping 750 ------- 0 1.0 5.0 -1 10
+ 0.035 3 4 ping 750 ------- 0 1.0 5.0 -1 10
r 0.035 2 3 cbr 750 ------- 1 2.0 6.0 4 11
+ 0.035 3 4 cbr 750 ------- 1 2.0 6.0 4 11
d 0.035 3 4 cbr 750 ------- 1 2.0 6.0 4 11
+ 0.035 2 3 cbr 750 ------- 1 2.0 6.0 5 13
- 0.035 2 3 cbr 750 ------- 1 2.0 6.0 5 13
r 0.035 4 5 ping 750 ------- 0 1.0 5.0 -1 4
+ 0.035 5 4 ping 64 ------- 0 5.0 1.0 -1 14
- 0.035 5 4 ping 64 ------- 0 5.0 1.0 -1 14
- 0.035 3 4 cbr 750 ------- 1 2.0 6.0 3 8
r 0.036 3 4 ping 750 ------- 0 1.0 5.0 -1 7
+ 0.036 4 5 ping 750 ------- 0 1.0 5.0 -1 7
- 0.036 4 5 ping 750 ------- 0 1.0 5.0 -1 7
r 0.036512 5 4 ping 64 ------- 0 5.0 1.0 -1 14
+ 0.036512 4 3 ping 64 ------- 0 5.0 1.0 -1 14
- 0.036512 4 3 ping 64 ------- 0 5.0 1.0 -1 14
r 0.037853 4 3 ping 64 ------- 0 5.0 1.0 -1 14
+ 0.037853 3 1 ping 64 ------- 0 5.0 1.0 -1 14
- 0.037853 3 1 ping 64 ------- 0 5.0 1.0 -1 14
r 0.039 4 6 cbr 750 ------- 1 2.0 6.0 2 5
- 0.039 3 4 ping 750 ------- 0 1.0 5.0 -1 10
r 0.039365 3 1 ping 64 ------- 0 5.0 1.0 -1 14
r 0.04 3 4 cbr 750 ------- 1 2.0 6.0 3 8
+ 0.04 4 6 cbr 750 ------- 1 2.0 6.0 3 8
- 0.04 4 6 cbr 750 ------- 1 2.0 6.0 3 8
+ 0.042 1 3 ping 750 ------- 0 1.0 5.0 -1 15
- 0.042 1 3 ping 750 ------- 0 1.0 5.0 -1 15
r 0.042 1 3 ping 750 ------- 0 1.0 5.0 -1 12
+ 0.042 3 4 ping 750 ------- 0 1.0 5.0 -1 12
r 0.042 2 3 cbr 750 ------- 1 2.0 6.0 5 13
+ 0.042 3 4 cbr 750 ------- 1 2.0 6.0 5 13
+ 0.042 2 3 cbr 750 ------- 1 2.0 6.0 6 16
- 0.042 2 3 cbr 750 ------- 1 2.0 6.0 6 16
r 0.043 4 5 ping 750 ------- 0 1.0 5.0 -1 7
+ 0.043 5 4 ping 64 ------- 0 5.0 1.0 -1 17
- 0.043 5 4 ping 64 ------- 0 5.0 1.0 -1 17
- 0.043 3 4 ping 750 ------- 0 1.0 5.0 -1 12
r 0.044 3 4 ping 750 ------- 0 1.0 5.0 -1 10
+ 0.044 4 5 ping 750 ------- 0 1.0 5.0 -1 10
- 0.044 4 5 ping 750 ------- 0 1.0 5.0 -1 10
r 0.044512 5 4 ping 64 ------- 0 5.0 1.0 -1 17
+ 0.044512 4 3 ping 64 ------- 0 5.0 1.0 -1 17
- 0.044512 4 3 ping 64 ------- 0 5.0 1.0 -1 17
r 0.045853 4 3 ping 64 ------- 0 5.0 1.0 -1 17
+ 0.045853 3 1 ping 64 ------- 0 5.0 1.0 -1 17
- 0.045853 3 1 ping 64 ------- 0 5.0 1.0 -1 17
r 0.047 4 6 cbr 750 ------- 1 2.0 6.0 3 8
- 0.047 3 4 cbr 750 ------- 1 2.0 6.0 5 13
r 0.047365 3 1 ping 64 ------- 0 5.0 1.0 -1 17
r 0.048 3 4 ping 750 ------- 0 1.0 5.0 -1 12
+ 0.048 4 5 ping 750 ------- 0 1.0 5.0 -1 12
+ 0.049 1 3 ping 750 ------- 0 1.0 5.0 -1 18
- 0.049 1 3 ping 750 ------- 0 1.0 5.0 -1 18
r 0.049 1 3 ping 750 ------- 0 1.0 5.0 -1 15
+ 0.049 3 4 ping 750 ------- 0 1.0 5.0 -1 15
r 0.049 2 3 cbr 750 ------- 1 2.0 6.0 6 16
+ 0.049 3 4 cbr 750 ------- 1 2.0 6.0 6 16
+ 0.049 2 3 cbr 750 ------- 1 2.0 6.0 7 19
- 0.049 2 3 cbr 750 ------- 1 2.0 6.0 7 19
- 0.05 4 5 ping 750 ------- 0 1.0 5.0 -1 12
r 0.051 4 5 ping 750 ------- 0 1.0 5.0 -1 10
+ 0.051 5 4 ping 64 ------- 0 5.0 1.0 -1 20
- 0.051 5 4 ping 64 ------- 0 5.0 1.0 -1 20
- 0.051 3 4 ping 750 ------- 0 1.0 5.0 -1 15
r 0.052 3 4 cbr 750 ------- 1 2.0 6.0 5 13
+ 0.052 4 6 cbr 750 ------- 1 2.0 6.0 5 13
- 0.052 4 6 cbr 750 ------- 1 2.0 6.0 5 13
r 0.052512 5 4 ping 64 ------- 0 5.0 1.0 -1 20
+ 0.052512 4 3 ping 64 ------- 0 5.0 1.0 -1 20
- 0.052512 4 3 ping 64 ------- 0 5.0 1.0 -1 20
r 0.053853 4 3 ping 64 ------- 0 5.0 1.0 -1 20
+ 0.053853 3 1 ping 64 ------- 0 5.0 1.0 -1 20
- 0.053853 3 1 ping 64 ------- 0 5.0 1.0 -1 20
- 0.055 3 4 cbr 750 ------- 1 2.0 6.0 6 16
r 0.055365 3 1 ping 64 ------- 0 5.0 1.0 -1 20
+ 0.056 1 3 ping 750 ------- 0 1.0 5.0 -1 21
- 0.056 1 3 ping 750 ------- 0 1.0 5.0 -1 21
r 0.056 1 3 ping 750 ------- 0 1.0 5.0 -1 18
+ 0.056 3 4 ping 750 ------- 0 1.0 5.0 -1 18
r 0.056 2 3 cbr 750 ------- 1 2.0 6.0 7 19
+ 0.056 3 4 cbr 750 ------- 1 2.0 6.0 7 19
+ 0.056 2 3 cbr 750 ------- 1 2.0 6.0 8 22
- 0.056 2 3 cbr 750 ------- 1 2.0 6.0 8 22
r 0.056 3 4 ping 750 ------- 0 1.0 5.0 -1 15
+ 0.056 4 5 ping 750 ------- 0 1.0 5.0 -1 15
- 0.056 4 5 ping 750 ------- 0 1.0 5.0 -1 15
r 0.057 4 5 ping 750 ------- 0 1.0 5.0 -1 12
+ 0.057 5 4 ping 64 ------- 0 5.0 1.0 -1 23
- 0.057 5 4 ping 64 ------- 0 5.0 1.0 -1 23
r 0.058512 5 4 ping 64 ------- 0 5.0 1.0 -1 23
+ 0.058512 4 3 ping 64 ------- 0 5.0 1.0 -1 23
- 0.058512 4 3 ping 64 ------- 0 5.0 1.0 -1 23
r 0.059 4 6 cbr 750 ------- 1 2.0 6.0 5 13
- 0.059 3 4 ping 750 ------- 0 1.0 5.0 -1 18
r 0.059853 4 3 ping 64 ------- 0 5.0 1.0 -1 23
+ 0.059853 3 1 ping 64 ------- 0 5.0 1.0 -1 23
- 0.059853 3 1 ping 64 ------- 0 5.0 1.0 -1 23
r 0.06 3 4 cbr 750 ------- 1 2.0 6.0 6 16
+ 0.06 4 6 cbr 750 ------- 1 2.0 6.0 6 16
- 0.06 4 6 cbr 750 ------- 1 2.0 6.0 6 16
r 0.061365 3 1 ping 64 ------- 0 5.0 1.0 -1 23
+ 0.063 1 3 ping 750 ------- 0 1.0 5.0 -1 24
- 0.063 1 3 ping 750 ------- 0 1.0 5.0 -1 24
r 0.063 1 3 ping 750 ------- 0 1.0 5.0 -1 21
+ 0.063 3 4 ping 750 ------- 0 1.0 5.0 -1 21
r 0.063 2 3 cbr 750 ------- 1 2.0 6.0 8 22
+ 0.063 3 4 cbr 750 ------- 1 2.0 6.0 8 22
d 0.063 3 4 cbr 750 ------- 1 2.0 6.0 8 22
+ 0.063 2 3 cbr 750 ------- 1 2.0 6.0 9 25
- 0.063 2 3 cbr 750 ------- 1 2.0 6.0 9 25
r 0.063 4 5 ping 750 ------- 0 1.0 5.0 -1 15
+ 0.063 5 4 ping 64 ------- 0 5.0 1.0 -1 26
- 0.063 5 4 ping 64 ------- 0 5.0 1.0 -1 26
- 0.063 3 4 cbr 750 ------- 1 2.0 6.0 7 19
r 0.064 3 4 ping 750 ------- 0 1.0 5.0 -1 18
+ 0.064 4 5 ping 750 ------- 0 1.0 5.0 -1 18
- 0.064 4 5 ping 750 ------- 0 1.0 5.0 -1 18
r 0.064512 5 4 ping 64 ------- 0 5.0 1.0 -1 26
+ 0.064512 4 3 ping 64 ------- 0 5.0 1.0 -1 26
- 0.064512 4 3 ping 64 ------- 0 5.0 1.0 -1 26
r 0.065853 4 3 ping 64 ------- 0 5.0 1.0 -1 26
+ 0.065853 3 1 ping 64 ------- 0 5.0 1.0 -1 26
- 0.065853 3 1 ping 64 ------- 0 5.0 1.0 -1 26
r 0.067 4 6 cbr 750 ------- 1 2.0 6.0 6 16
- 0.067 3 4 ping 750 ------- 0 1.0 5.0 -1 21
r 0.067365 3 1 ping 64 ------- 0 5.0 1.0 -1 26
r 0.068 3 4 cbr 750 ------- 1 2.0 6.0 7 19
+ 0.068 4 6 cbr 750 ------- 1 2.0 6.0 7 19
- 0.068 4 6 cbr 750 ------- 1 2.0 6.0 7 19
+ 0.07 1 3 ping 750 ------- 0 1.0 5.0 -1 27
- 0.07 1 3 ping 750 ------- 0 1.0 5.0 -1 27
r 0.07 1 3 ping 750 ------- 0 1.0 5.0 -1 24
+ 0.07 3 4 ping 750 ------- 0 1.0 5.0 -1 24
r 0.07 2 3 cbr 750 ------- 1 2.0 6.0 9 25
+ 0.07 3 4 cbr 750 ------- 1 2.0 6.0 9 25
+ 0.07 2 3 cbr 750 ------- 1 2.0 6.0 10 28
- 0.07 2 3 cbr 750 ------- 1 2.0 6.0 10 28
r 0.071 4 5 ping 750 ------- 0 1.0 5.0 -1 18
+ 0.071 5 4 ping 64 ------- 0 5.0 1.0 -1 29
- 0.071 5 4 ping 64 ------- 0 5.0 1.0 -1 29
- 0.071 3 4 ping 750 ------- 0 1.0 5.0 -1 24
r 0.072 3 4 ping 750 ------- 0 1.0 5.0 -1 21
+ 0.072 4 5 ping 750 ------- 0 1.0 5.0 -1 21
- 0.072 4 5 ping 750 ------- 0 1.0 5.0 -1 21
r 0.072512 5 4 ping 64 ------- 0 5.0 1.0 -1 29
+ 0.072512 4 3 ping 64 ------- 0 5.0 1.0 -1 29
- 0.072512 4 3 ping 64 ------- 0 5.0 1.0 -1 29
r 0.073853 4 3 ping 64 ------- 0 5.0 1.0 -1 29
+ 0.073853 3 1 ping 64 ------- 0 5.0 1.0 -1 29
- 0.073853 3 1 ping 64 ------- 0 5.0 1.0 -1 29
r 0.075 4 6 cbr 750 ------- 1 2.0 6.0 7 19
- 0.075 3 4 cbr 750 ------- 1 2.0 6.0 9 25
r 0.075365 3 1 ping 64 ------- 0 5.0 1.0 -1 29
r 0.076 3 4 ping 750 ------- 0 1.0 5.0 -1 24
+ 0.076 4 5 ping 750 ------- 0 1.0 5.0 -1 24
+ 0.077 1 3 ping 750 ------- 0 1.0 5.0 -1 30
- 0.077 1 3 ping 750 ------- 0 1.0 5.0 -1 30
r 0.077 1 3 ping 750 ------- 0 1.0 5.0 -1 27
+ 0.077 3 4 ping 750 ------- 0 1.0 5.0 -1 27
r 0.077 2 3 cbr 750 ------- 1 2.0 6.0 10 28
+ 0.077 3 4 cbr 750 ------- 1 2.0 6.0 10 28
+ 0.077 2 3 cbr 750 ------- 1 2.0 6.0 11 31
- 0.077 2 3 cbr 750 ------- 1 2.0 6.0 11 31
- 0.078 4 5 ping 750 ------- 0 1.0 5.0 -1 24
r 0.079 4 5 ping 750 ------- 0 1.0 5.0 -1 21
+ 0.079 5 4 ping 64 ------- 0 5.0 1.0 -1 32
- 0.079 5 4 ping 64 ------- 0 5.0 1.0 -1 32
- 0.079 3 4 ping 750 ------- 0 1.0 5.0 -1 27
r 0.08 3 4 cbr 750 ------- 1 2.0 6.0 9 25
+ 0.08 4 6 cbr 750 ------- 1 2.0 6.0 9 25
- 0.08 4 6 cbr 750 ------- 1 2.0 6.0 9 25
r 0.080512 5 4 ping 64 ------- 0 5.0 1.0 -1 32
+ 0.080512 4 3 ping 64 ------- 0 5.0 1.0 -1 32
- 0.080512 4 3 ping 64 ------- 0 5.0 1.0 -1 32
r 0.081853 4 3 ping 64 ------- 0 5.0 1.0 -1 32
+ 0.081853 3 1 ping 64 ------- 0 5.0 1.0 -1 32
- 0.081853 3 1 ping 64 ------- 0 5.0 1.0 -1 32
- 0.083 3 4 cbr 750 ------- 1 2.0 6.0 10 28
r 0.083365 3 1 ping 64 ------- 0 5.0 1.0 -1 32
+ 0.084 1 3 ping 750 ------- 0 1.0 5.0 -1 33
- 0.084 1 3 ping 750 ------- 0 1.0 5.0 -1 33
r 0.084 1 3 ping 750 ------- 0 1.0 5.0 -1 30
+ 0.084 3 4 ping 750 ------- 0 1.0 5.0 -1 30
r 0.084 2 3 cbr 750 ------- 1 2.0 6.0 11 31
+ 0.084 3 4 cbr 750 ------- 1 2.0 6.0 11 31
+ 0.084 2 3 cbr 750 ------- 1 2.0 6.0 12 34
- 0.084 2 3 cbr 750 ------- 1 2.0 6.0 12 34
r 0.084 3 4 ping 750 ------- 0 1.0 5.0 -1 27
+ 0.084 4 5 ping 750 ------- 0 1.0 5.0 -1 27
- 0.084 4 5 ping 750 ------- 0 1.0 5.0 -1 27
r 0.085 4 5 ping 750 ------- 0 1.0 5.0 -1 24
+ 0.085 5 4 ping 64 ------- 0 5.0 1.0 -1 35
- 0.085 5 4 ping 64 ------- 0 5.0 1.0 -1 35
r 0.086512 5 4 ping 64 ------- 0 5.0 1.0 -1 35
+ 0.086512 4 3 ping 64 ------- 0 5.0 1.0 -1 35
- 0.086512 4 3 ping 64 ------- 0 5.0 1.0 -1 35
r 0.087 4 6 cbr 750 ------- 1 2.0 6.0 9 25
- 0.087 3 4 ping 750 ------- 0 1.0 5.0 -1 30
r 0.087853 4 3 ping 64 ------- 0 5.0 1.0 -1 35
+ 0.087853 3 1 ping 64 ------- 0 5.0 1.0 -1 35
- 0.087853 3 1 ping 64 ------- 0 5.0 1.0 -1 35
r 0.088 3 4 cbr 750 ------- 1 2.0 6.0 10 28
+ 0.088 4 6 cbr 750 ------- 1 2.0 6.0 10 28
- 0.088 4 6 cbr 750 ------- 1 2.0 6.0 10 28
r 0.089365 3 1 ping 64 ------- 0 5.0 1.0 -1 35
+ 0.091 1 3 ping 750 ------- 0 1.0 5.0 -1 36
- 0.091 1 3 ping 750 ------- 0 1.0 5.0 -1 36
r 0.091 1 3 ping 750 ------- 0 1.0 5.0 -1 33
+ 0.091 3 4 ping 750 ------- 0 1.0 5.0 -1 33
r 0.091 2 3 cbr 750 ------- 1 2.0 6.0 12 34
+ 0.091 3 4 cbr 750 ------- 1 2.0 6.0 12 34
d 0.091 3 4 cbr 750 ------- 1 2.0 6.0 12 34
+ 0.091 2 3 cbr 750 ------- 1 2.0 6.0 13 37
- 0.091 2 3 cbr 750 ------- 1 2.0 6.0 13 37
r 0.091 4 5 ping 750 ------- 0 1.0 5.0 -1 27
+ 0.091 5 4 ping 64 ------- 0 5.0 1.0 -1 38
- 0.091 5 4 ping 64 ------- 0 5.0 1.0 -1 38
- 0.091 3 4 cbr 750 ------- 1 2.0 6.0 11 31
r 0.092 3 4 ping 750 ------- 0 1.0 5.0 -1 30
+ 0.092 4 5 ping 750 ------- 0 1.0 5.0 -1 30
- 0.092 4 5 ping 750 ------- 0 1.0 5.0 -1 30
r 0.092512 5 4 ping 64 ------- 0 5.0 1.0 -1 38
+ 0.092512 4 3 ping 64 ------- 0 5.0 1.0 -1 38
- 0.092512 4 3 ping 64 ------- 0 5.0 1.0 -1 38
r 0.093853 4 3 ping 64 ------- 0 5.0 1.0 -1 38
+ 0.093853 3 1 ping 64 ------- 0 5.0 1.0 -1 38
- 0.093853 3 1 ping 64 ------- 0 5.0 1.0 -1 38
r 0.095 4 6 cbr 750 ------- 1 2.0 6.0 10 28
- 0.095 3 4 ping 750 ------- 0 1.0 5.0 -1 33
r 0.095365 3 1 ping 64 ------- 0 5.0 1.0 -1 38
r 0.096 3 4 cbr 750 ------- 1 2.0 6.0 11 31
+ 0.096 4 6 cbr 750 ------- 1 2.0 6.0 11 31
- 0.096 4 6 cbr 750 ------- 1 2.0 6.0 11 31
+ 0.098 1 3 ping 750 ------- 0 1.0 5.0 -1 39
- 0.098 1 3 ping 750 ------- 0 1.0 5.0 -1 39
r 0.098 1 3 ping 750 ------- 0 1.0 5.0 -1 36
+ 0.098 3 4 ping 750 ------- 0 1.0 5.0 -1 36
r 0.098 2 3 cbr 750 ------- 1 2.0 6.0 13 37
+ 0.098 3 4 cbr 750 ------- 1 2.0 6.0 13 37
+ 0.098 2 3 cbr 750 ------- 1 2.0 6.0 14 40
- 0.098 2 3 cbr 750 ------- 1 2.0 6.0 14 40
r 0.099 4 5 ping 750 ------- 0 1.0 5.0 -1 30
+ 0.099 5 4 ping 64 ------- 0 5.0 1.0 -1 41
- 0.099 5 4 ping 64 ------- 0 5.0 1.0 -1 41
- 0.099 3 4 ping 750 ------- 0 1.0 5.0 -1 36
r 0.1 3 4 ping 750 ------- 0 1.0 5.0 -1 33
+ 0.1 4 5 ping 750 ------- 0 1.0 5.0 -1 33
- 0.1 4 5 ping 750 ------- 0 1.0 5.0 -1 33
r 0.100512 5 4 ping 64 ------- 0 5.0 1.0 -1 41
+ 0.100512 4 3 ping 64 ------- 0 5.0 1.0 -1 41
- 0.100512 4 3 ping 64 ------- 0 5.0 1.0 -1 41
r 0.101853 4 3 ping 64 ------- 0 5.0 1.0 -1 41
+ 0.101853 3 1 ping 64 ------- 0 5.0 1.0 -1 41
- 0.101853 3 1 ping 64 ------- 0 5.0 1.0 -1 41
r 0.103 4 6 cbr 750 ------- 1 2.0 6.0 11 31
- 0.103 3 4 cbr 750 ------- 1 2.0 6.0 13 37
r 0.103365 3 1 ping 64 ------- 0 5.0 1.0 -1 41
r 0.104 3 4 ping 750 ------- 0 1.0 5.0 -1 36
+ 0.104 4 5 ping 750 ------- 0 1.0 5.0 -1 36
+ 0.105 1 3 ping 750 ------- 0 1.0 5.0 -1 42
- 0.105 1 3 ping 750 ------- 0 1.0 5.0 -1 42
r 0.105 1 3 ping 750 ------- 0 1.0 5.0 -1 39
+ 0.105 3 4 ping 750 ------- 0 1.0 5.0 -1 39
r 0.105 2 3 cbr 750 ------- 1 2.0 6.0 14 40
+ 0.105 3 4 cbr 750 ------- 1 2.0 6.0 14 40
+ 0.105 2 3 cbr 750 ------- 1 2.0 6.0 15 43
- 0.105 2 3 cbr 750 ------- 1 2.0 6.0 15 43
- 0.106 4 5 ping 750 ------- 0 1.0 5.0 -1 36
r 0.107 4 5 ping 750 ------- 0 1.0 5.0 -1 33
+ 0.107 5 4 ping 64 ------- 0 5.0 1.0 -1 44
- 0.107 5 4 ping 64 ------- 0 5.0 1.0 -1 44
- 0.107 3 4 ping 750 ------- 0 1.0 5.0 -1 39
r 0.108 3 4 cbr 750 ------- 1 2.0 6.0 13 37
+ 0.108 4 6 cbr 750 ------- 1 2.0 6.0 13 37
- 0.108 4 6 cbr 750 ------- 1 2.0 6.0 13 37
r 0.108512 5 4 ping 64 ------- 0 5.0 1.0 -1 44
+ 0.108512 4 3 ping 64 ------- 0 5.0 1.0 -1 44
- 0.108512 4 3 ping 64 ------- 0 5.0 1.0 -1 44
r 0.109853 4 3 ping 64 ------- 0 5.0 1.0 -1 44
+ 0.109853 3 1 ping 64 ------- 0 5.0 1.0 -1 44
- 0.109853 3 1 ping 64 ------- 0 5.0 1.0 -1 44
- 0.111 3 4 cbr 750 ------- 1 2.0 6.0 14 40
r 0.111365 3 1 ping 64 ------- 0 5.0 1.0 -1 44
+ 0.112 1 3 ping 750 ------- 0 1.0 5.0 -1 45
- 0.112 1 3 ping 750 ------- 0 1.0 5.0 -1 45
r 0.112 1 3 ping 750 ------- 0 1.0 5.0 -1 42
+ 0.112 3 4 ping 750 ------- 0 1.0 5.0 -1 42
r 0.112 2 3 cbr 750 ------- 1 2.0 6.0 15 43
+ 0.112 3 4 cbr 750 ------- 1 2.0 6.0 15 43
+ 0.112 2 3 cbr 750 ------- 1 2.0 6.0 16 46
- 0.112 2 3 cbr 750 ------- 1 2.0 6.0 16 46
r 0.112 3 4 ping 750 ------- 0 1.0 5.0 -1 39
+ 0.112 4 5 ping 750 ------- 0 1.0 5.0 -1 39
- 0.112 4 5 ping 750 ------- 0 1.0 5.0 -1 39
r 0.113 4 5 ping 750 ------- 0 1.0 5.0 -1 36
+ 0.113 5 4 ping 64 ------- 0 5.0 1.0 -1 47
- 0.113 5 4 ping 64 ------- 0 5.0 1.0 -1 47
r 0.114512 5 4 ping 64 ------- 0 5.0 1.0 -1 47
+ 0.114512 4 3 ping 64 ------- 0 5.0 1.0 -1 47
- 0.114512 4 3 ping 64 ------- 0 5.0 1.0 -1 47
r 0.115 4 6 cbr 750 ------- 1 2.0 6.0 13 37
- 0.115 3 4 ping 750 ------- 0 1.0 5.0 -1 42
r 0.115853 4 3 ping 64 ------- 0 5.0 1.0 -1 47
+ 0.115853 3 1 ping 64 ------- 0 5.0 1.0 -1 47
- 0.115853 3 1 ping 64 ------- 0 5.0 1.0 -1 47
r 0.116 3 4 cbr 750 ------- 1 2.0 6.0 14 40
+ 0.116 4 6 cbr 750 ------- 1 2.0 6.0 14 40
- 0.116 4 6 cbr 750 ------- 1 2.0 6.0 14 40
r 0.117365 3 1 ping 64 ------- 0 5.0 1.0 -1 47
+ 0.119 1 3 ping 750 ------- 0 1.0 5.0 -1 48
- 0.119 1 3 ping 750 ------- 0 1.0 5.0 -1 48
r 0.119 1 3 ping 750 ------- 0 1.0 5.0 -1 45
+ 0.119 3 4 ping 750 ------- 0 1.0 5.0 -1 45
r 0.119 2 3 cbr 750 ------- 1 2.0 6.0 16 46
+ 0.119 3 4 cbr 750 ------- 1 2.0 6.0 16 46
d 0.119 3 4 cbr 750 ------- 1 2.0 6.0 16 46
+ 0.119 2 3 cbr 750 ------- 1 2.0 6.0 17 49
- 0.119 2 3 cbr 750 ------- 1 2.0 6.0 17 49
r 0.119 4 5 ping 750 ------- 0 1.0 5.0 -1 39
+ 0.119 5 4 ping 64 ------- 0 5.0 1.0 -1 50
- 0.119 5 4 ping 64 ------- 0 5.0 1.0 -1 50
- 0.119 3 4 cbr 750 ------- 1 2.0 6.0 15 43
r 0.12 3 4 ping 750 ------- 0 1.0 5.0 -1 42
+ 0.12 4 5 ping 750 ------- 0 1.0 5.0 -1 42
- 0.12 4 5 ping 750 ------- 0 1.0 5.0 -1 42
r 0.120512 5 4 ping 64 ------- 0 5.0 1.0 -1 50
+ 0.120512 4 3 ping 64 ------- 0 5.0 1.0 -1 50
- 0.120512 4 3 ping 64 ------- 0 5.0 1.0 -1 50
r 0.121853 4 3 ping 64 ------- 0 5.0 1.0 -1 50
+ 0.121853 3 1 ping 64 ------- 0 5.0 1.0 -1 50
- 0.121853 3 1 ping 64 ------- 0 5.0 1.0 -1 50
r 0.123 4 6 cbr 750 ------- 1 2.0 6.0 14 40
- 0.123 3 4 ping 750 ------- 0 1.0 5.0 -1 45
r 0.123365 3 1 ping 64 ------- 0 5.0 1.0 -1 50
r 0.124 3 4 cbr 750 ------- 1 2.0 6.0 15 43
+ 0.124 4 6 cbr 750 ------- 1 2.0 6.0 15 43
- 0.124 4 6 cbr 750 ------- 1 2.0 6.0 15 43
+ 0.126 1 3 ping 750 ------- 0 1.0 5.0 -1 51
- 0.126 1 3 ping 750 ------- 0 1.0 5.0 -1 51
r 0.126 1 3 ping 750 ------- 0 1.0 5.0 -1 48
+ 0.126 3 4 ping 750 ------- 0 1.0 5.0 -1 48
r 0.126 2 3 cbr 750 ------- 1 2.0 6.0 17 49
+ 0.126 3 4 cbr 750 ------- 1 2.0 6.0 17 49
+ 0.126 2 3 cbr 750 ------- 1 2.0 6.0 18 52
- 0.126 2 3 cbr 750 ------- 1 2.0 6.0 18 52
r 0.127 4 5 ping 750 ------- 0 1.0 5.0 -1 42
+ 0.127 5 4 ping 64 ------- 0 5.0 1.0 -1 53
- 0.127 5 4 ping 64 ------- 0 5.0 1.0 -1 53
- 0.127 3 4 ping 750 ------- 0 1.0 5.0 -1 48
r 0.128 3 4 ping 750 ------- 0 1.0 5.0 -1 45
+ 0.128 4 5 ping 750 ------- 0 1.0 5.0 -1 45
- 0.128 4 5 ping 750 ------- 0 1.0 5.0 -1 45
r 0.128512 5 4 ping 64 ------- 0 5.0 1.0 -1 53
+ 0.128512 4 3 ping 64 ------- 0 5.0 1.0 -1 53
- 0.128512 4 3 ping 64 ------- 0 5.0 1.0 -1 53
r 0.129853 4 3 ping 64 ------- 0 5.0 1.0 -1 53
+ 0.129853 3 1 ping 64 ------- 0 5.0 1.0 -1 53
- 0.129853 3 1 ping 64 ------- 0 5.0 1.0 -1 53
r 0.131 4 6 cbr 750 ------- 1 2.0 6.0 15 43
- 0.131 3 4 cbr 750 ------- 1 2.0 6.0 17 49
r 0.131365 3 1 ping 64 ------- 0 5.0 1.0 -1 53
r 0.132 3 4 ping 750 ------- 0 1.0 5.0 -1 48
+ 0.132 4 5 ping 750 ------- 0 1.0 5.0 -1 48
+ 0.133 1 3 ping 750 ------- 0 1.0 5.0 -1 54
- 0.133 1 3 ping 750 ------- 0 1.0 5.0 -1 54
r 0.133 1 3 ping 750 ------- 0 1.0 5.0 -1 51
+ 0.133 3 4 ping 750 ------- 0 1.0 5.0 -1 51
r 0.133 2 3 cbr 750 ------- 1 2.0 6.0 18 52
+ 0.133 3 4 cbr 750 ------- 1 2.0 6.0 18 52
+ 0.133 2 3 cbr 750 ------- 1 2.0 6.0 19 55
- 0.133 2 3 cbr 750 ------- 1 2.0 6.0 19 55
- 0.134 4 5 ping 750 ------- 0 1.0 5.0 -1 48
r 0.135 4 5 ping 750 ------- 0 1.0 5.0 -1 45
+ 0.135 5 4 ping 64 ------- 0 5.0 1.0 -1 56
- 0.135 5 4 ping 64 ------- 0 5.0 1.0 -1 56
- 0.135 3 4 ping 750 ------- 0 1.0 5.0 -1 51
r 0.136 3 4 cbr 750 ------- 1 2.0 6.0 17 49
+ 0.136 4 6 cbr 750 ------- 1 2.0 6.0 17 49
- 0.136 4 6 cbr 750 ------- 1 2.0 6.0 17 49
r 0.136512 5 4 ping 64 ------- 0 5.0 1.0 -1 56
+ 0.136512 4 3 ping 64 ------- 0 5.0 1.0 -1 56
- 0.136512 4 3 ping 64 ------- 0 5.0 1.0 -1 56
r 0.137853 4 3 ping 64 ------- 0 5.0 1.0 -1 56
+ 0.137853 3 1 ping 64 ------- 0 5.0 1.0 -1 56
- 0.137853 3 1 ping 64 ------- 0 5.0 1.0 -1 56
- 0.139 3 4 cbr 750 ------- 1 2.0 6.0 18 52
r 0.139365 3 1 ping 64 ------- 0 5.0 1.0 -1 56
r 0.14 1 3 ping 750 ------- 0 1.0 5.0 -1 54
+ 0.14 3 4 ping 750 ------- 0 1.0 5.0 -1 54
r 0.14 2 3 cbr 750 ------- 1 2.0 6.0 19 55
+ 0.14 3 4 cbr 750 ------- 1 2.0 6.0 19 55
+ 0.14 2 3 cbr 750 ------- 1 2.0 6.0 20 57
- 0.14 2 3 cbr 750 ------- 1 2.0 6.0 20 57
r 0.14 3 4 ping 750 ------- 0 1.0 5.0 -1 51
+ 0.14 4 5 ping 750 ------- 0 1.0 5.0 -1 51
- 0.14 4 5 ping 750 ------- 0 1.0 5.0 -1 51
r 0.141 4 5 ping 750 ------- 0 1.0 5.0 -1 48
+ 0.141 5 4 ping 64 ------- 0 5.0 1.0 -1 58
- 0.141 5 4 ping 64 ------- 0 5.0 1.0 -1 58
r 0.142512 5 4 ping 64 ------- 0 5.0 1.0 -1 58
+ 0.142512 4 3 ping 64 ------- 0 5.0 1.0 -1 58
- 0.142512 4 3 ping 64 ------- 0 5.0 1.0 -1 58
r 0.143 4 6 cbr 750 ------- 1 2.0 6.0 17 49
- 0.143 3 4 ping 750 ------- 0 1.0 5.0 -1 54
r 0.143853 4 3 ping 64 ------- 0 5.0 1.0 -1 58
+ 0.143853 3 1 ping 64 ------- 0 5.0 1.0 -1 58
- 0.143853 3 1 ping 64 ------- 0 5.0 1.0 -1 58
r 0.144 3 4 cbr 750 ------- 1 2.0 6.0 18 52
+ 0.144 4 6 cbr 750 ------- 1 2.0 6.0 18 52
- 0.144 4 6 cbr 750 ------- 1 2.0 6.0 18 52
r 0.145365 3 1 ping 64 ------- 0 5.0 1.0 -1 58
r 0.147 2 3 cbr 750 ------- 1 2.0 6.0 20 57
+ 0.147 3 4 cbr 750 ------- 1 2.0 6.0 20 57
+ 0.147 2 3 cbr 750 ------- 1 2.0 6.0 21 59
- 0.147 2 3 cbr 750 ------- 1 2.0 6.0 21 59
r 0.147 4 5 ping 750 ------- 0 1.0 5.0 -1 51
+ 0.147 5 4 ping 64 ------- 0 5.0 1.0 -1 60
- 0.147 5 4 ping 64 ------- 0 5.0 1.0 -1 60
- 0.147 3 4 cbr 750 ------- 1 2.0 6.0 19 55
r 0.148 3 4 ping 750 ------- 0 1.0 5.0 -1 54
+ 0.148 4 5 ping 750 ------- 0 1.0 5.0 -1 54
- 0.148 4 5 ping 750 ------- 0 1.0 5.0 -1 54
r 0.148512 5 4 ping 64 ------- 0 5.0 1.0 -1 60
+ 0.148512 4 3 ping 64 ------- 0 5.0 1.0 -1 60
- 0.148512 4 3 ping 64 ------- 0 5.0 1.0 -1 60
r 0.149853 4 3 ping 64 ------- 0 5.0 1.0 -1 60
+ 0.149853 3 1 ping 64 ------- 0 5.0 1.0 -1 60
- 0.149853 3 1 ping 64 ------- 0 5.0 1.0 -1 60
r 0.151 4 6 cbr 750 ------- 1 2.0 6.0 18 52
- 0.151 3 4 cbr 750 ------- 1 2.0 6.0 20 57
r 0.151365 3 1 ping 64 ------- 0 5.0 1.0 -1 60
r 0.152 3 4 cbr 750 ------- 1 2.0 6.0 19 55
+ 0.152 4 6 cbr 750 ------- 1 2.0 6.0 19 55
- 0.152 4 6 cbr 750 ------- 1 2.0 6.0 19 55
r 0.154 2 3 cbr 750 ------- 1 2.0 6.0 21 59
+ 0.154 3 4 cbr 750 ------- 1 2.0 6.0 21 59
+ 0.154 2 3 cbr 750 ------- 1 2.0 6.0 22 61
- 0.154 2 3 cbr 750 ------- 1 2.0 6.0 22 61
r 0.155 4 5 ping 750 ------- 0 1.0 5.0 -1 54
+ 0.155 5 4 ping 64 ------- 0 5.0 1.0 -1 62
- 0.155 5 4 ping 64 ------- 0 5.0 1.0 -1 62
- 0.155 3 4 cbr 750 ------- 1 2.0 6.0 21 59
r 0.156 3 4 cbr 750 ------- 1 2.0 6.0 20 57
+ 0.156 4 6 cbr 750 ------- 1 2.0 6.0 20 57
r 0.156512 5 4 ping 64 ------- 0 5.0 1.0 -1 62
+ 0.156512 4 3 ping 64 ------- 0 5.0 1.0 -1 62
- 0.156512 4 3 ping 64 ------- 0 5.0 1.0 -1 62
r 0.157853 4 3 ping 64 ------- 0 5.0 1.0 -1 62
+ 0.157853 3 1 ping 64 ------- 0 5.0 1.0 -1 62
- 0.157853 3 1 ping 64 ------- 0 5.0 1.0 -1 62
- 0.158 4 6 cbr 750 ------- 1 2.0 6.0 20 57
r 0.159 4 6 cbr 750 ------- 1 2.0 6.0 19 55
r 0.159365 3 1 ping 64 ------- 0 5.0 1.0 -1 62
r 0.16 3 4 cbr 750 ------- 1 2.0 6.0 21 59
+ 0.16 4 6 cbr 750 ------- 1 2.0 6.0 21 59
r 0.161 2 3 cbr 750 ------- 1 2.0 6.0 22 61
+ 0.161 3 4 cbr 750 ------- 1 2.0 6.0 22 61
- 0.161 3 4 cbr 750 ------- 1 2.0 6.0 22 61
+ 0.161 2 3 cbr 750 ------- 1 2.0 6.0 23 63
- 0.161 2 3 cbr 750 ------- 1 2.0 6.0 23 63
- 0.164 4 6 cbr 750 ------- 1 2.0 6.0 21 59
r 0.165 4 6 cbr 750 ------- 1 2.0 6.0 20 57
r 0.166 3 4 cbr 750 ------- 1 2.0 6.0 22 61
+ 0.166 4 6 cbr 750 ------- 1 2.0 6.0 22 61
r 0.168 2 3 cbr 750 ------- 1 2.0 6.0 23 63
+ 0.168 3 4 cbr 750 ------- 1 2.0 6.0 23 63
- 0.168 3 4 cbr 750 ------- 1 2.0 6.0 23 63
+ 0.168 2 3 cbr 750 ------- 1 2.0 6.0 24 64
- 0.168 2 3 cbr 750 ------- 1 2.0 6.0 24 64
- 0.17 4 6 cbr 750 ------- 1 2.0 6.0 22 61
r 0.171 4 6 cbr 750 ------- 1 2.0 6.0 21 59
r 0.173 3 4 cbr 750 ------- 1 2.0 6.0 23 63
+ 0.173 4 6 cbr 750 ------- 1 2.0 6.0 23 63
r 0.175 2 3 cbr 750 ------- 1 2.0 6.0 24 64
+ 0.175 3 4 cbr 750 ------- 1 2.0 6.0 24 64
- 0.175 3 4 cbr 750 ------- 1 2.0 6.0 24 64
+ 0.175 2 3 cbr 750 ------- 1 2.0 6.0 25 65
- 0.175 2 3 cbr 750 ------- 1 2.0 6.0 25 65
- 0.176 4 6 cbr 750 ------- 1 2.0 6.0 23 63
r 0.177 4 6 cbr 750 ------- 1 2.0 6.0 22 61
r 0.18 3 4 cbr 750 ------- 1 2.0 6.0 24 64
+ 0.18 4 6 cbr 750 ------- 1 2.0 6.0 24 64
r 0.182 2 3 cbr 750 ------- 1 2.0 6.0 25 65
+ 0.182 3 4 cbr 750 ------- 1 2.0 6.0 25 65
- 0.182 3 4 cbr 750 ------- 1 2.0 6.0 25 65
+ 0.182 2 3 cbr 750 ------- 1 2.0 6.0 26 66
- 0.182 2 3 cbr 750 ------- 1 2.0 6.0 26 66
- 0.182 4 6 cbr 750 ------- 1 2.0 6.0 24 64
r 0.183 4 6 cbr 750 ------- 1 2.0 6.0 23 63
r 0.187 3 4 cbr 750 ------- 1 2.0 6.0 25 65
+ 0.187 4 6 cbr 750 ------- 1 2.0 6.0 25 65
- 0.188 4 6 cbr 750 ------- 1 2.0 6.0 25 65
r 0.189 2 3 cbr 750 ------- 1 2.0 6.0 26 66
+ 0.189 3 4 cbr 750 ------- 1 2.0 6.0 26 66
- 0.189 3 4 cbr 750 ------- 1 2.0 6.0 26 66
+ 0.189 2 3 cbr 750 ------- 1 2.0 6.0 27 67
- 0.189 2 3 cbr 750 ------- 1 2.0 6.0 27 67
r 0.189 4 6 cbr 750 ------- 1 2.0 6.0 24 64
r 0.194 3 4 cbr 750 ------- 1 2.0 6.0 26 66
+ 0.194 4 6 cbr 750 ------- 1 2.0 6.0 26 66
- 0.194 4 6 cbr 750 ------- 1 2.0 6.0 26 66
r 0.195 4 6 cbr 750 ------- 1 2.0 6.0 25 65
r 0.196 2 3 cbr 750 ------- 1 2.0 6.0 27 67
+ 0.196 3 4 cbr 750 ------- 1 2.0 6.0 27 67
- 0.196 3 4 cbr 750 ------- 1 2.0 6.0 27 67
+ 0.196 2 3 cbr 750 ------- 1 2.0 6.0 28 68
- 0.196 2 3 cbr 750 ------- 1 2.0 6.0 28 68
r 0.201 3 4 cbr 750 ------- 1 2.0 6.0 27 67
+ 0.201 4 6 cbr 750 ------- 1 2.0 6.0 27 67
- 0.201 4 6 cbr 750 ------- 1 2.0 6.0 27 67
r 0.201 4 6 cbr 750 ------- 1 2.0 6.0 26 66
r 0.203 2 3 cbr 750 ------- 1 2.0 6.0 28 68
+ 0.203 3 4 cbr 750 ------- 1 2.0 6.0 28 68
- 0.203 3 4 cbr 750 ------- 1 2.0 6.0 28 68
+ 0.203 2 3 cbr 750 ------- 1 2.0 6.0 29 69
- 0.203 2 3 cbr 750 ------- 1 2.0 6.0 29 69
r 0.208 4 6 cbr 750 ------- 1 2.0 6.0 27 67
r 0.208 3 4 cbr 750 ------- 1 2.0 6.0 28 68
+ 0.208 4 6 cbr 750 ------- 1 2.0 6.0 28 68
- 0.208 4 6 cbr 750 ------- 1 2.0 6.0 28 68
r 0.21 2 3 cbr 750 ------- 1 2.0 6.0 29 69
+ 0.21 3 4 cbr 750 ------- 1 2.0 6.0 29 69
- 0.21 3 4 cbr 750 ------- 1 2.0 6.0 29 69
+ 0.21 2 3 cbr 750 ------- 1 2.0 6.0 30 70
- 0.21 2 3 cbr 750 ------- 1 2.0 6.0 30 70
r 0.215 4 6 cbr 750 ------- 1 2.0 6.0 28 68
r 0.215 3 4 cbr 750 ------- 1 2.0 6.0 29 69
+ 0.215 4 6 cbr 750 ------- 1 2.0 6.0 29 69
- 0.215 4 6 cbr 750 ------- 1 2.0 6.0 29 69
r 0.217 2 3 cbr 750 ------- 1 2.0 6.0 30 70
+ 0.217 3 4 cbr 750 ------- 1 2.0 6.0 30 70
- 0.217 3 4 cbr 750 ------- 1 2.0 6.0 30 70
+ 0.217 2 3 cbr 750 ------- 1 2.0 6.0 31 71
- 0.217 2 3 cbr 750 ------- 1 2.0 6.0 31 71
r 0.222 4 6 cbr 750 ------- 1 2.0 6.0 29 69
r 0.222 3 4 cbr 750 ------- 1 2.0 6.0 30 70
+ 0.222 4 6 cbr 750 ------- 1 2.0 6.0 30 70
- 0.222 4 6 cbr 750 ------- 1 2.0 6.0 30 70
r 0.224 2 3 cbr 750 ------- 1 2.0 6.0 31 71
+ 0.224 3 4 cbr 750 ------- 1 2.0 6.0 31 71
- 0.224 3 4 cbr 750 ------- 1 2.0 6.0 31 71
+ 0.224 2 3 cbr 750 ------- 1 2.0 6.0 32 72
- 0.224 2 3 cbr 750 ------- 1 2.0 6.0 32 72
r 0.229 4 6 cbr 750 ------- 1 2.0 6.0 30 70
r 0.229 3 4 cbr 750 ------- 1 2.0 6.0 31 71
+ 0.229 4 6 cbr 750 ------- 1 2.0 6.0 31 71
- 0.229 4 6 cbr 750 ------- 1 2.0 6.0 31 71
r 0.231 2 3 cbr 750 ------- 1 2.0 6.0 32 72
+ 0.231 3 4 cbr 750 ------- 1 2.0 6.0 32 72
- 0.231 3 4 cbr 750 ------- 1 2.0 6.0 32 72
+ 0.231 2 3 cbr 750 ------- 1 2.0 6.0 33 73
- 0.231 2 3 cbr 750 ------- 1 2.0 6.0 33 73
r 0.236 4 6 cbr 750 ------- 1 2.0 6.0 31 71
r 0.236 3 4 cbr 750 ------- 1 2.0 6.0 32 72
+ 0.236 4 6 cbr 750 ------- 1 2.0 6.0 32 72
- 0.236 4 6 cbr 750 ------- 1 2.0 6.0 32 72
r 0.238 2 3 cbr 750 ------- 1 2.0 6.0 33 73
+ 0.238 3 4 cbr 750 ------- 1 2.0 6.0 33 73
- 0.238 3 4 cbr 750 ------- 1 2.0 6.0 33 73
+ 0.238 2 3 cbr 750 ------- 1 2.0 6.0 34 74
- 0.238 2 3 cbr 750 ------- 1 2.0 6.0 34 74
r 0.243 4 6 cbr 750 ------- 1 2.0 6.0 32 72
r 0.243 3 4 cbr 750 ------- 1 2.0 6.0 33 73
+ 0.243 4 6 cbr 750 ------- 1 2.0 6.0 33 73
- 0.243 4 6 cbr 750 ------- 1 2.0 6.0 33 73
r 0.245 2 3 cbr 750 ------- 1 2.0 6.0 34 74
+ 0.245 3 4 cbr 750 ------- 1 2.0 6.0 34 74
- 0.245 3 4 cbr 750 ------- 1 2.0 6.0 34 74
+ 0.245 2 3 cbr 750 ------- 1 2.0 6.0 35 75
- 0.245 2 3 cbr 750 ------- 1 2.0 6.0 35 75
r 0.25 4 6 cbr 750 ------- 1 2.0 6.0 33 73
r 0.25 3 4 cbr 750 ------- 1 2.0 6.0 34 74
+ 0.25 4 6 cbr 750 ------- 1 2.0 6.0 34 74
- 0.25 4 6 cbr 750 ------- 1 2.0 6.0 34 74
r 0.252 2 3 cbr 750 ------- 1 2.0 6.0 35 75
+ 0.252 3 4 cbr 750 ------- 1 2.0 6.0 35 75
- 0.252 3 4 cbr 750 ------- 1 2.0 6.0 35 75
+ 0.252 2 3 cbr 750 ------- 1 2.0 6.0 36 76
- 0.252 2 3 cbr 750 ------- 1 2.0 6.0 36 76
r 0.257 4 6 cbr 750 ------- 1 2.0 6.0 34 74
r 0.257 3 4 cbr 750 ------- 1 2.0 6.0 35 75
+ 0.257 4 6 cbr 750 ------- 1 2.0 6.0 35 75
- 0.257 4 6 cbr 750 ------- 1 2.0 6.0 35 75
r 0.259 2 3 cbr 750 ------- 1 2.0 6.0 36 76
+ 0.259 3 4 cbr 750 ------- 1 2.0 6.0 36 76
- 0.259 3 4 cbr 750 ------- 1 2.0 6.0 36 76
+ 0.259 2 3 cbr 750 ------- 1 2.0 6.0 37 77