V -t * -v 1.0a5 -a 0
A -t * -n 1 -p 0 -o 0x7fffffff -c 30 -a 1
A -t * -h 1 -m 1073741823 -s 0
c -t * -i 0 -n blue
c -t * -i 1 -n red
n -t * -a 4 -s 4 -S UP -v circle -c green -i green
n -t * -a 0 -s 0 -S UP -v circle -c black -i black
n -t * -a 5 -s 5 -S UP -v circle -c blue -i blue
n -t * -a 1 -s 1 -S UP -v circle -c blue -i blue
n -t * -a 6 -s 6 -S UP -v circle -c red -i red
n -t * -a 2 -s 2 -S UP -v circle -c red -i red
n -t * -a 3 -s 3 -S UP -v circle -c green -i green
l -t * -s 1 -d 3 -S UP -r 1000000 -D 0.001 -c black
l -t * -s 2 -d 3 -S UP -r 1000000 -D 0.001 -c black
l -t * -s 3 -d 4 -S UP -r 1500000 -D 0.001 -c black
l -t * -s 4 -d 5 -S UP -r 1000000 -D 0.001 -c black
l -t * -s 4 -d 6 -S UP -r 1000000 -D 0.001 -c black
+ -t 0 -s 1 -d 3 -p ping -e 750 -c 0 -i 0 -a 0 -x {1.0 5.0 -1 ------- null}
- -t 0 -s 1 -d 3 -p ping -e 750 -c 0 -i 0 -a 0 -x {1.0 5.0 -1 ------- null}
h -t 0 -s 1 -d 3 -p ping -e 750 -c 0 -i 0 -a 0 -x {1.0 5.0 -1 ------- null}
+ -t 0 -s 2 -d 3 -p cbr -e 750 -c 1 -i 1 -a 1 -x {2.0 6.0 0 ------- null}
- -t 0 -s 2 -d 3 -p cbr -e 750 -c 1 -i 1 -a 1 -x {2.0 6.0 0 ------- null}
h -t 0 -s 2 -d 3 -p cbr -e 750 -c 1 -i 1 -a 1 -x {2.0 6.0 -1 ------- null}
+ -t 0.007 -s 1 -d 3 -p ping -e 750 -c 0 -i 2 -a 0 -x {1.0 5.0 -1 ------- null}
- -t 0.007 -s 1 -d 3 -p ping -e 750 -c 0 -i 2 -a 0 -x {1.0 5.0 -1 ------- null}
h -t 0.007 -s 1 -d 3 -p ping -e 750 -c 0 -i 2 -a 0 -x {1.0 5.0 -1 ------- null}
r -t 0.007 -s 1 -d 3 -p ping -e 750 -c 0 -i 0 -a 0 -x {1.0 5.0 -1 ------- null}
+ -t 0.007 -s 3 -d 4 -p ping -e 750 -c 0 -i 0 -a 0 -x {1.0 5.0 -1 ------- null}
- -t 0.007 -s 3 -d 4 -p ping -e 750 -c 0 -i 0 -a 0 -x {1.0 5.0 -1 ------- null}
h -t 0.007 -s 3 -d 4 -p ping -e 750 -c 0 -i 0 -a 0 -x {1.0 5.0 -1 ------- null}
r -t 0.007 -s 2 -d 3 -p cbr -e 750 -c 1 -i 1 -a 1 -x {2.0 6.0 0 ------- null}
+ -t 0.007 -s 3 -d 4 -p cbr -e 750 -c 1 -i 1 -a 1 -x {2.0 6.0 0 ------- null}
+ -t 0.007 -s 2 -d 3 -p cbr -e 750 -c 1 -i 3 -a 1 -x {2.0 6.0 1 ------- null}
- -t 0.007 -s 2 -d 3 -p cbr -e 750 -c 1 -i 3 -a 1 -x {2.0 6.0 1 ------- null}
h -t 0.007 -s 2 -d 3 -p cbr -e 750 -c 1 -i 3 -a 1 -x {2.0 6.0 -1 ------- null}
- -t 0.011 -s 3 -d 4 -p cbr -e 750 -c 1 -i 1 -a 1 -x {2.0 6.0 0 ------- null}
h -t 0.011 -s 3 -d 4 -p cbr -e 750 -c 1 -i 1 -a 1 -x {2.0 6.0 -1 ------- null}
r -t 0.012 -s 3 -d 4 -p ping -e 750 -c 0 -i 0 -a 0 -x {1.0 5.0 -1 ------- null}
+ -t 0.012 -s 4 -d 5 -p ping -e 750 -c 0 -i 0 -a 0 -x {1.0 5.0 -1 ------- null}
- -t 0.012 -s 4 -d 5 -p ping -e 750 -c 0 -i 0 -a 0 -x {1.0 5.0 -1 ------- null}
h -t 0.012 -s 4 -d 5 -p ping -e 750 -c 0 -i 0 -a 0 -x {1.0 5.0 -1 ------- null}
+ -t 0.014 -s 1 -d 3 -p ping -e 750 -c 0 -i 4 -a 0 -x {1.0 5.0 -1 ------- null}
- -t 0.014 -s 1 -d 3 -p ping -e 750 -c 0 -i 4 -a 0 -x {1.0 5.0 -1 ------- null}
h -t 0.014 -s 1 -d 3 -p ping -e 750 -c 0 -i 4 -a 0 -x {1.0 5.0 -1 ------- null}
r -t 0.014 -s 1 -d 3 -p ping -e 750 -c 0 -i 2 -a 0 -x {1.0 5.0 -1 ------- null}
+ -t 0.014 -s 3 -d 4 -p ping -e 750 -c 0 -i 2 -a 0 -x {1.0 5.0 -1 ------- null}
r -t 0.014 -s 2 -d 3 -p cbr -e 750 -c 1 -i 3 -a 1 -x {2.0 6.0 1 ------- null}
+ -t 0.014 -s 3 -d 4 -p cbr -e 750 -c 1 -i 3 -a 1 -x {2.0 6.0 1 ------- null}
+ -t 0.014 -s 2 -d 3 -p cbr -e 750 -c 1 -i 5 -a 1 -x {2.0 6.0 2 ------- null}
- -t 0.014 -s 2 -d 3 -p cbr -e 750 -c 1 -i 5 -a 1 -x {2.0 6.0 2 ------- null}
h -t 0.014 -s 2 -d 3 -p cbr -e 750 -c 1 -i 5 -a 1 -x {2.0 6.0 -1 ------- null}
- -t 0.015 -s 3 -d 4 -p ping -e 750 -c 0 -i 2 -a 0 -x {1.0 5.0 -1 ------- null}
h -t 0.015 -s 3 -d 4 -p ping -e 750 -c 0 -i 2 -a 0 -x {1.0 5.0 -1 ------- null}
r -t 0.016 -s 3 -d 4 -p cbr -e 750 -c 1 -i 1 -a 1 -x {2.0 6.0 0 ------- null}
+ -t 0.016 -s 4 -d 6 -p cbr -e 750 -c 1 -i 1 -a 1 -x {2.0 6.0 0 ------- null}
- -t 0.016 -s 4 -d 6 -p cbr -e 750 -c 1 -i 1 -a 1 -x {2.0 6.0 0 ------- null}
h -t 0.016 -s 4 -d 6 -p cbr -e 750 -c 1 -i 1 -a 1 -x {2.0 6.0 -1 ------- null}
r -t 0.019 -s 4 -d 5 -p ping -e 750 -c 0 -i 0 -a 0 -x {1.0 5.0 -1 ------- null}
+ -t 0.019 -s 5 -d 4 -p ping -e 64 -c 0 -i 6 -a 0 -x {5.0 1.0 -1 ------- null}
- -t 0.019 -s 5 -d 4 -p ping -e 64 -c 0 -i 6 -a 0 -x {5.0 1.0 -1 ------- null}
h -t 0.019 -s 5 -d 4 -p ping -e 64 -c 0 -i 6 -a 0 -x {5.0 1.0 -1 ------- null}
- -t 0.019 -s 3 -d 4 -p cbr -e 750 -c 1 -i 3 -a 1 -x {2.0 6.0 1 ------- null}
h -t 0.019 -s 3 -d 4 -p cbr -e 750 -c 1 -i 3 -a 1 -x {2.0 6.0 -1 ------- null}
r -t 0.02 -s 3 -d 4 -p ping -e 750 -c 0 -i 2 -a 0 -x {1.0 5.0 -1 ------- null}
+ -t 0.02 -s 4 -d 5 -p ping -e 750 -c 0 -i 2 -a 0 -x {1.0 5.0 -1 ------- null}
- -t 0.02 -s 4 -d 5 -p ping -e 750 -c 0 -i 2 -a 0 -x {1.0 5.0 -1 ------- null}
h -t 0.02 -s 4 -d 5 -p ping -e 750 -c 0 -i 2 -a 0 -x {1.0 5.0 -1 ------- null}
r -t 0.020512 -s 5 -d 4 -p ping -e 64 -c 0 -i 6 -a 0 -x {5.0 1.0 -1 ------- null}
+ -t 0.020512 -s 4 -d 3 -p ping -e 64 -c 0 -i 6 -a 0 -x {5.0 1.0 -1 ------- null}
- -t 0.020512 -s 4 -d 3 -p ping -e 64 -c 0 -i 6 -a 0 -x {5.0 1.0 -1 ------- null}
h -t 0.020512 -s 4 -d 3 -p ping -e 64 -c 0 -i 6 -a 0 -x {5.0 1.0 -1 ------- null}
+ -t 0.021 -s 1 -d 3 -p ping -e 750 -c 0 -i 7 -a 0 -x {1.0 5.0 -1 ------- null}
- -t 0.021 -s 1 -d 3 -p ping -e 750 -c 0 -i 7 -a 0 -x {1.0 5.0 -1 ------- null}
h -t 0.021 -s 1 -d 3 -p ping -e 750 -c 0 -i 7 -a 0 -x {1.0 5.0 -1 ------- null}
r -t 0.021 -s 1 -d 3 -p ping -e 750 -c 0 -i 4 -a 0 -x {1.0 5.0 -1 ------- null}
+ -t 0.021 -s 3 -d 4 -p ping -e 750 -c 0 -i 4 -a 0 -x {1.0 5.0 -1 ------- null}
r -t 0.021 -s 2 -d 3 -p cbr -e 750 -c 1 -i 5 -a 1 -x {2.0 6.0 2 ------- null}
+ -t 0.021 -s 3 -d 4 -p cbr -e 750 -c 1 -i 5 -a 1 -x {2.0 6.0 2 ------- null}
+ -t 0.021 -s 2 -d 3 -p cbr -e 750 -c 1 -i 8 -a 1 -x {2.0 6.0 3 ------- null}
- -t 0.021 -s 2 -d 3 -p cbr -e 750 -c 1 -i 8 -a 1 -x {2.0 6.0 3 ------- null}
h -t 0.021 -s 2 -d 3 -p cbr -e 750 -c 1 -i 8 -a 1 -x {2.0 6.0 -1 ------- null}
r -t 0.0218533333333333 -s 4 -d 3 -p ping -e 64 -c 0 -i 6 -a 0 -x {5.0 1.0 -1 ------- null}
+ -t 0.0218533333333333 -s 3 -d 1 -p ping -e 64 -c 0 -i 6 -a 0 -x {5.0 1.0 -1 ------- null}
- -t 0.0218533333333333 -s 3 -d 1 -p ping -e 64 -c 0 -i 6 -a 0 -x {5.0 1.0 -1 ------- null}
h -t 0.0218533333333333 -s 3 -d 1 -p ping -e 64 -c 0 -i 6 -a 0 -x {5.0 1.0 -1 ------- null}
r -t 0.023 -s 4 -d 6 -p cbr -e 750 -c 1 -i 1 -a 1 -x {2.0 6.0 0 ------- null}
- -t 0.023 -s 3 -d 4 -p ping -e 750 -c 0 -i 4 -a 0 -x {1.0 5.0 -1 ------- null}
h -t 0.023 -s 3 -d 4 -p ping -e 750 -c 0 -i 4 -a 0 -x {1.0 5.0 -1 ------- null}
r -t 0.0233653333333333 -s 3 -d 1 -p ping -e 64 -c 0 -i 6 -a 0 -x {5.0 1.0 -1 ------- null}
r -t 0.024 -s 3 -d 4 -p cbr -e 750 -c 1 -i 3 -a 1 -x {2.0 6.0 1 ------- null}
+ -t 0.024 -s 4 -d 6 -p cbr -e 750 -c 1 -i 3 -a 1 -x {2.0 6.0 1 ------- null}
- -t 0.024 -s 4 -d 6 -p cbr -e 750 -c 1 -i 3 -a 1 -x {2.0 6.0 1 ------- null}
h -t 0.024 -s 4 -d 6 -p cbr -e 750 -c 1 -i 3 -a 1 -x {2.0 6.0 -1 ------- null}
r -t 0.027 -s 4 -d 5 -p ping -e 750 -c 0 -i 2 -a 0 -x {1.0 5.0 -1 ------- null}
+ -t 0.027 -s 5 -d 4 -p ping -e 64 -c 0 -i 9 -a 0 -x {5.0 1.0 -1 ------- null}
- -t 0.027 -s 5 -d 4 -p ping -e 64 -c 0 -i 9 -a 0 -x {5.0 1.0 -1 ------- null}
h -t 0.027 -s 5 -d 4 -p ping -e 64 -c 0 -i 9 -a 0 -x {5.0 1.0 -1 ------- null}
- -t 0.027 -s 3 -d 4 -p cbr -e 750 -c 1 -i 5 -a 1 -x {2.0 6.0 2 ------- null}
h -t 0.027 -s 3 -d 4 -p cbr -e 750 -c 1 -i 5 -a 1 -x {2.0 6.0 -1 ------- null}
+ -t 0.028 -s 1 -d 3 -p ping -e 750 -c 0 -i 10 -a 0 -x {1.0 5.0 -1 ------- null}
- -t 0.028 -s 1 -d 3 -p ping -e 750 -c 0 -i 10 -a 0 -x {1.0 5.0 -1 ------- null}
h -t 0.028 -s 1 -d 3 -p ping -e 750 -c 0 -i 10 -a 0 -x {1.0 5.0 -1 ------- null}
r -t 0.028 -s 1 -d 3 -p ping -e 750 -c 0 -i 7 -a 0 -x {1.0 5.0 -1 ------- null}
+ -t 0.028 -s 3 -d 4 -p ping -e 750 -c 0 -i 7 -a 0 -x {1.0 5.0 -1 ------- null}
r -t 0.028 -s 2 -d 3 -p cbr -e 750 -c 1 -i 8 -a 1 -x {2.0 6.0 3 ------- null}
+ -t 0.028 -s 3 -d 4 -p cbr -e 750 -c 1 -i 8 -a 1 -x {2.0 6.0 3 ------- null}
+ -t 0.028 -s 2 -d 3 -p cbr -e 750 -c 1 -i 11 -a 1 -x {2.0 6.0 4 ------- null}
- -t 0.028 -s 2 -d 3 -p cbr -e 750 -c 1 -i 11 -a 1 -x {2.0 6.0 4 ------- null}
h -t 0.028 -s 2 -d 3 -p cbr -e 750 -c 1 -i 11 -a 1 -x {2.0 6.0 -1 ------- null}
r -t 0.028 -s 3 -d 4 -p ping -e 750 -c 0 -i 4 -a 0 -x {1.0 5.0 -1 ------- null}
+ -t 0.028 -s 4 -d 5 -p ping -e 750 -c 0 -i 4 -a 0 -x {1.0 5.0 -1 ------- null}
- -t 0.028 -s 4 -d 5 -p ping -e 750 -c 0 -i 4 -a 0 -x {1.0 5.0 -1 ------- null}
h -t 0.028 -s 4 -d 5 -p ping -e 750 -c 0 -i 4 -a 0 -x {1.0 5.0 -1 ------- null}
r -t 0.028512 -s 5 -d 4 -p ping -e 64 -c 0 -i 9 -a 0 -x {5.0 1.0 -1 ------- null}
+ -t 0.028512 -s 4 -d 3 -p ping -e 64 -c 0 -i 9 -a 0 -x {5.0 1.0 -1 ------- null}
- -t 0.028512 -s 4 -d 3 -p ping -e 64 -c 0 -i 9 -a 0 -x {5.0 1.0 -1 ------- null}
h -t 0.028512 -s 4 -d 3 -p ping -e 64 -c 0 -i 9 -a 0 -x {5.0 1.0 -1 ------- null}
r -t 0.0298533333333333 -s 4 -d 3 -p ping -e 64 -c 0 -i 9 -a 0 -x {5.0 1.0 -1 ------- null}
+ -t 0.0298533333333333 -s 3 -d 1 -p ping -e 64 -c 0 -i 9 -a 0 -x {5.0 1.0 -1 ------- null}
- -t 0.0298533333333333 -s 3 -d 1 -p ping -e 64 -c 0 -i 9 -a 0 -x {5.0 1.0 -1 ------- null}
h -t 0.0298533333333333 -s 3 -d 1 -p ping -e 64 -c 0 -i 9 -a 0 -x {5.0 1.0 -1 ------- null}
r -t 0.031 -s 4 -d 6 -p cbr -e 750 -c 1 -i 3 -a 1 -x {2.0 6.0 1 ------- null}
- -t 0.031 -s 3 -d 4 -p ping -e 750 -c 0 -i 7 -a 0 -x {1.0 5.0 -1 ------- null}
h -t 0.031 -s 3 -d 4 -p ping -e 750 -c 0 -i 7 -a 0 -x {1.0 5.0 -1 ------- null}
r -t 0.0313653333333333 -s 3 -d 1 -p ping -e 64 -c 0 -i 9 -a 0 -x {5.0 1.0 -1 ------- null}
r -t 0.032 -s 3 -d 4 -p cbr -e 750 -c 1 -i 5 -a 1 -x {2.0 6.0 2 ------- null}
+ -t 0.032 -s 4 -d 6 -p cbr -e 750 -c 1 -i 5 -a 1 -x {2.0 6.0 2 ------- null}
- -t 0.032 -s 4 -d 6 -p cbr -e 750 -c 1 -i 5 -a 1 -x {2.0 6.0 2 ------- null}
h -t 0.032 -s 4 -d 6 -p cbr -e 750 -c 1 -i 5 -a 1 -x {2.0 6.0 -1 ------- null}
+ -t 0.035 -s 1 -d 3 -p ping -e 750 -c 0 -i 12 -a 0 -x {1.0 5.0 -1 ------- null}
- -t 0.035 -s 1 -d 3 -p ping -e 750 -c 0 -i 12 -a 0 -x {1.0 5.0 -1 ------- null}
h -t 0.035 -s 1 -d 3 -p ping -e 750 -c 0 -i 12 -a 0 -x {1.0 5.0 -1 ------- null}
r -t 0.035 -s 1 -d 3 -p ping -e 750 -c 0 -i 10 -a 0 -x {1.0 5.0 -1 ------- null}
+ -t 0.035 -s 3 -d 4 -p ping -e 750 -c 0 -i 10 -a 0 -x {1.0 5.0 -1 ------- null}
r -t 0.035 -s 2 -d 3 -p cbr -e 750 -c 1 -i 11 -a 1 -x {2.0 6.0 4 ------- null}
+ -t 0.035 -s 3 -d 4 -p cbr -e 750 -c 1 -i 11 -a 1 -x {2.0 6.0 4 ------- null}
d -t 0.035 -s 3 -d 4 -p cbr -e 750 -c 1 -i 11 -a 1 -x {2.0 6.0 4 ------- null}
+ -t 0.035 -s 2 -d 3 -p cbr -e 750 -c 1 -i 13 -a 1 -x {2.0 6.0 5 ------- null}
- -t 0.035 -s 2 -d 3 -p cbr -e 750 -c 1 -i 13 -a 1 -x {2.0 6.0 5 ------- null}
h -t 0.035 -s 2 -d 3 -p cbr -e 750 -c 1 -i 13 -a 1 -x {2.0 6.0 -1 ------- null}
r -t 0.035 -s 4 -d 5 -p ping -e 750 -c 0 -i 4 -a 0 -x {1.0 5.0 -1 ------- null}
+ -t 0.035 -s 5 -d 4 -p ping -e 64 -c 0 -i 14 -a 0 -x {5.0 1.0 -1 ------- null}
- -t 0.035 -s 5 -d 4 -p ping -e 64 -c 0 -i 14 -a 0 -x {5.0 1.0 -1 ------- null}
h -t 0.035 -s 5 -d 4 -p ping -e 64 -c 0 -i 14 -a 0 -x {5.0 1.0 -1 ------- null}
- -t 0.035 -s 3 -d 4 -p cbr -e 750 -c 1 -i 8 -a 1 -x {2.0 6.0 3 ------- null}
h -t 0.035 -s 3 -d 4 -p cbr -e 750 -c 1 -i 8 -a 1 -x {2.0 6.0 -1 ------- null}
r -t 0.036 -s 3 -d 4 -p ping -e 750 -c 0 -i 7 -a 0 -x {1.0 5.0 -1 ------- null}
+ -t 0.036 -s 4 -d 5 -p ping -e 750 -c 0 -i 7 -a 0 -x {1.0 5.0 -1 ------- null}
- -t 0.036 -s 4 -d 5 -p ping -e 750 -c 0 -i 7 -a 0 -x {1.0 5.0 -1 ------- null}
h -t 0.036 -s 4 -d 5 -p ping -e 750 -c 0 -i 7 -a 0 -x {1.0 5.0 -1 ------- null}
r -t 0.036512 -s 5 -d 4 -p ping -e 64 -c 0 -i 14 -a 0 -x {5.0 1.0 -1 ------- null}
+ -t 0.036512 -s 4 -d 3 -p ping -e 64 -c 0 -i 14 -a 0 -x {5.0 1.0 -1 ------- null}
- -t 0.036512 -s 4 -d 3 -p ping -e 64 -c 0 -i 14 -a 0 -x {5.0 1.0 -1 ------- null}
h -t 0.036512 -s 4 -d 3 -p ping -e 64 -c 0 -i 14 -a 0 -x {5.0 1.0 -1 ------- null}
r -t 0.0378533333333333 -s 4 -d 3 -p ping -e 64 -c 0 -i 14 -a 0 -x {5.0 1.0 -1 ------- null}
+ -t 0.0378533333333333 -s 3 -d 1 -p ping -e 64 -c 0 -i 14 -a 0 -x {5.0 1.0 -1 ------- null}
- -t 0.0378533333333333 -s 3 -d 1 -p ping -e 64 -c 0 -i 14 -a 0 -x {5.0 1.0 -1 ------- null}
h -t 0.0378533333333333 -s 3 -d 1 -p ping -e 64 -c 0 -i 14 -a 0 -x {5.0 1.0 -1 ------- null}
r -t 0.039 -s 4 -d 6 -p cbr -e 750 -c 1 -i 5 -a 1 -x {2.0 6.0 2 ------- null}
- -t 0.039 -s 3 -d 4 -p ping -e 750 -c 0 -i 10 -a 0 -x {1.0 5.0 -1 ------- null}
h -t 0.039 -s 3 -d 4 -p ping -e 750 -c 0 -i 10 -a 0 -x {1.0 5.0 -1 ------- null}
r -t 0.0393653333333333 -s 3 -d 1 -p ping -e 64 -c 0 -i 14 -a 0 -x {5.0 1.0 -1 ------- null}
r -t 0.04 -s 3 -d 4 -p cbr -e 750 -c 1 -i 8 -a 1 -x {2.0 6.0 3 ------- null}
+ -t 0.04 -s 4 -d 6 -p cbr -e 750 -c 1 -i 8 -a 1 -x {2.0 6.0 3 ------- null}
- -t 0.04 -s 4 -d 6 -p cbr -e 750 -c 1 -i 8 -a 1 -x {2.0 6.0 3 ------- null}
h -t 0.04 -s 4 -d 6 -p cbr -e 750 -c 1 -i 8 -a 1 -x {2.0 6.0 -1 ------- null}
+ -t 0.042 -s 1 -d 3 -p ping -e 750 -c 0 -i 15 -a 0 -x {1.0 5.0 -1 ------- null}
- -t 0.042 -s 1 -d 3 -p ping -e 750 -c 0 -i 15 -a 0 -x {1.0 5.0 -1 ------- null}
h -t 0.042 -s 1 -d 3 -p ping -e 750 -c 0 -i 15 -a 0 -x {1.0 5.0 -1 ------- null}
r -t 0.042 -s 1 -d 3 -p ping -e 750 -c 0 -i 12 -a 0 -x {1.0 5.0 -1 ------- null}
+ -t 0.042 -s 3 -d 4 -p ping -e 750 -c 0 -i 12 -a 0 -x {1.0 5.0 -1 ------- null}
r -t 0.042 -s 2 -d 3 -p cbr -e 750 -c 1 -i 13 -a 1 -x {2.0 6.0 5 ------- null}
+ -t 0.042 -s 3 -d 4 -p cbr -e 750 -c 1 -i 13 -a 1 -x {2.0 6.0 5 ------- null}
+ -t 0.042 -s 2 -d 3 -p cbr -e 750 -c 1 -i 16 -a 1 -x {2.0 6.0 6 ------- null}
- -t 0.042 -s 2 -d 3 -p cbr -e 750 -c 1 -i 16 -a 1 -x {2.0 6.0 6 ------- null}
h -t 0.042 -s 2 -d 3 -p cbr -e 750 -c 1 -i 16 -a 1 -x {2.0 6.0 -1 ------- null}
r -t 0.043 -s 4 -d 5 -p ping -e 750 -c 0 -i 7 -a 0 -x {1.0 5.0 -1 ------- null}
+ -t 0.043 -s 5 -d 4 -p ping -e 64 -c 0 -i 17 -a 0 -x {5.0 1.0 -1 ------- null}
- -t 0.043 -s 5 -d 4 -p ping -e 64 -c 0 -i 17 -a 0 -x {5.0 1.0 -1 ------- null}
h -t 0.043 -s 5 -d 4 -p ping -e 64 -c 0 -i 17 -a 0 -x {5.0 1.0 -1 ------- null}
- -t 0.043 -s 3 -d 4 -p ping -e 750 -c 0 -i 12 -a 0 -x {1.0 5.0 -1 ------- null}
h -t 0.043 -s 3 -d 4 -p ping -e 750 -c 0 -i 12 -a 0 -x {1.0 5.0 -1 ------- null}
r -t 0.044 -s 3 -d 4 -p ping -e 750 -c 0 -i 10 -a 0 -x {1.0 5.0 -1 ------- null}
+ -t 0.044 -s 4 -d 5 -p ping -e 750 -c 0 -i 10 -a 0 -x {1.0 5.0 -1 ------- null}
- -t 0.044 -s 4 -d 5 -p ping -e 750 -c 0 -i 10 -a 0 -x {1.0 5.0 -1 ------- null}
h -t 0.044 -s 4 -d 5 -p ping -e 750 -c 0 -i 10 -a 0 -x {1.0 5.0 -1 ------- null}
r -t 0.044512 -s 5 -d 4 -p ping -e 64 -c 0 -i 17 -a 0 -x {5.0 1.0 -1 ------- null}
+ -t 0.044512 -s 4 -d 3 -p ping -e 64 -c 0 -i 17 -a 0 -x {5.0 1.0 -1 ------- null}
- -t 0.044512 -s 4 -d 3 -p ping -e 64 -c 0 -i 17 -a 0 -x {5.0 1.0 -1 ------- null}
h -t 0.044512 -s 4 -d 3 -p ping -e 64 -c 0 -i 17 -a 0 -x {5.0 1.0 -1 ------- null}
r -t 0.0458533333333333 -s 4 -d 3 -p ping -e 64 -c 0 -i 17 -a 0 -x {5.0 1.0 -1 ------- null}
+ -t 0.0458533333333333 -s 3 -d 1 -p ping -e 64 -c 0 -i 17 -a 0 -x {5.0 1.0 -1 ------- null}
- -t 0.0458533333333333 -s 3 -d 1 -p ping -e 64 -c 0 -i 17 -a 0 -x {5.0 1.0 -1 ------- null}
h -t 0.0458533333333333 -s 3 -d 1 -p ping -e 64 -c 0 -i 17 -a 0 -x {5.0 1.0 -1 ------- null}
r -t 0.047 -s 4 -d 6 -p cbr -e 750 -c 1 -i 8 -a 1 -x {2.0 6.0 3 ------- null}
- -t 0.047 -s 3 -d 4 -p cbr -e 750 -c 1 -i 13 -a 1 -x {2.0 6.0 5 ------- null}
h -t 0.047 -s 3 -d 4 -p cbr -e 750 -c 1 -i 13 -a 1 -x {2.0 6.0 -1 ------- null}
r -t 0.0473653333333333 -s 3 -d 1 -p ping -e 64 -c 0 -i 17 -a 0 -x {5.0 1.0 -1 ------- null}
r -t 0.048 -s 3 -d 4 -p ping -e 750 -c 0 -i 12 -a 0 -x {1.0 5.0 -1 ------- null}
+ -t 0.048 -s 4 -d 5 -p ping -e 750 -c 0 -i 12 -a 0 -x {1.0 5.0 -1 ------- null}
+ -t 0.049 -s 1 -d 3 -p ping -e 750 -c 0 -i 18 -a 0 -x {1.0 5.0 -1 ------- null}
- -t 0.049 -s 1 -d 3 -p ping -e 750 -c 0 -i 18 -a 0 -x {1.0 5.0 -1 ------- null}
h -t 0.049 -s 1 -d 3 -p ping -e 750 -c 0 -i 18 -a 0 -x {1.0 5.0 -1 ------- null}
r -t 0.049 -s 1 -d 3 -p ping -e 750 -c 0 -i 15 -a 0 -x {1.0 5.0 -1 ------- null}
+ -t 0.049 -s 3 -d 4 -p ping -e 750 -c 0 -i 15 -a 0 -x {1.0 5.0 -1 ------- null}
r -t 0.049 -s 2 -d 3 -p cbr -e 750 -c 1 -i 16 -a 1 -x {2.0 6.0 6 ------- null}
+ -t 0.049 -s 3 -d 4 -p cbr -e 750 -c 1 -i 16 -a 1 -x {2.0 6.0 6 ------- null}
+ -t 0.049 -s 2 -d 3 -p cbr -e 750 -c 1 -i 19 -a 1 -x {2.0 6.0 7 ------- null}
- -t 0.049 -s 2 -d 3 -p cbr -e 750 -c 1 -i 19 -a 1 -x {2.0 6.0 7 ------- null}
h -t 0.049 -s 2 -d 3 -p cbr -e 750 -c 1 -i 19 -a 1 -x {2.0 6.0 -1 ------- null}
- -t 0.05 -s 4 -d 5 -p ping -e 750 -c 0 -i 12 -a 0 -x {1.0 5.0 -1 ------- null}
h -t 0.05 -s 4 -d 5 -p ping -e 750 -c 0 -i 12 -a 0 -x {1.0 5.0 -1 ------- null}
r -t 0.051 -s 4 -d 5 -p ping -e 750 -c 0 -i 10 -a 0 -x {1.0 5.0 -1 ------- null}
+ -t 0.051 -s 5 -d 4 -p ping -e 64 -c 0 -i 20 -a 0 -x {5.0 1.0 -1 ------- null}
- -t 0.051 -s 5 -d 4 -p ping -e 64 -c 0 -i 20 -a 0 -x {5.0 1.0 -1 ------- null}
h -t 0.051 -s 5 -d 4 -p ping -e 64 -c 0 -i 20 -a 0 -x {5.0 1.0 -1 ------- null}
- -t 0.051 -s 3 -d 4 -p ping -e 750 -c 0 -i 15 -a 0 -x {1.0 5.0 -1 ------- null}
h -t 0.051 -s 3 -d 4 -p ping -e 750 -c 0 -i 15 -a 0 -x {1.0 5.0 -1 ------- null}
r -t 0.052 -s 3 -d 4 -p cbr -e 750 -c 1 -i 13 -a 1 -x {2.0 6.0 5 ------- null}
+ -t 0.052 -s 4 -d 6 -p cbr -e 750 -c 1 -i 13 -a 1 -x {2.0 6.0 5 ------- null}
- -t 0.052 -s 4 -d 6 -p cbr -e 750 -c 1 -i 13 -a 1 -x {2.0 6.0 5 ------- null}
h -t 0.052 -s 4 -d 6 -p cbr -e 750 -c 1 -i 13 -a 1 -x {2.0 6.0 -1 ------- null}
r -t 0.052512 -s 5 -d 4 -p ping -e 64 -c 0 -i 20 -a 0 -x {5.0 1.0 -1 ------- null}
+ -t 0.052512 -s 4 -d 3 -p ping -e 64 -c 0 -i 20 -a 0 -x {5.0 1.0 -1 ------- null}
- -t 0.052512 -s 4 -d 3 -p ping -e 64 -c 0 -i 20 -a 0 -x {5.0 1.0 -1 ------- null}
h -t 0.052512 -s 4 -d 3 -p ping -e 64 -c 0 -i 20 -a 0 -x {5.0 1.0 -1 ------- null}
r -t 0.0538533333333333 -s 4 -d 3 -p ping -e 64 -c 0 -i 20 -a 0 -x {5.0 1.0 -1 ------- null}
+ -t 0.0538533333333333 -s 3 -d 1 -p ping -e 64 -c 0 -i 20 -a 0 -x {5.0 1.0 -1 ------- null}
- -t 0.0538533333333333 -s 3 -d 1 -p ping -e 64 -c 0 -i 20 -a 0 -x {5.0 1.0 -1 ------- null}
h -t 0.0538533333333333 -s 3 -d 1 -p ping -e 64 -c 0 -i 20 -a 0 -x {5.0 1.0 -1 ------- null}
- -t 0.055 -s 3 -d 4 -p cbr -e 750 -c 1 -i 16 -a 1 -x {2.0 6.0 6 ------- null}
h -t 0.055 -s 3 -d 4 -p cbr -e 750 -c 1 -i 16 -a 1 -x {2.0 6.0 -1 ------- null}
r -t 0.0553653333333333 -s 3 -d 1 -p ping -e 64 -c 0 -i 20 -a 0 -x {5.0 1.0 -1 ------- null}
+ -t 0.056 -s 1 -d 3 -p ping -e 750 -c 0 -i 21 -a 0 -x {1.0 5.0 -1 ------- null}
- -t 0.056 -s 1 -d 3 -p ping -e 750 -c 0 -i 21 -a 0 -x {1.0 5.0 -1 ------- null}
h -t 0.056 -s 1 -d 3 -p ping -e 750 -c 0 -i 21 -a 0 -x {1.0 5.0 -1 ------- null}
r -t 0.056 -s 1 -d 3 -p ping -e 750 -c 0 -i 18 -a 0 -x {1.0 5.0 -1 ------- null}
+ -t 0.056 -s 3 -d 4 -p ping -e 750 -c 0 -i 18 -a 0 -x {1.0 5.0 -1 ------- null}
r -t 0.056 -s 2 -d 3 -p cbr -e 750 -c 1 -i 19 -a 1 -x {2.0 6.0 7 ------- null}
+ -t 0.056 -s 3 -d 4 -p cbr -e 750 -c 1 -i 19 -a 1 -x {2.0 6.0 7 ------- null}
+ -t 0.056 -s 2 -d 3 -p cbr -e 750 -c 1 -i 22 -a 1 -x {2.0 6.0 8 ------- null}
- -t 0.056 -s 2 -d 3 -p cbr -e 750 -c 1 -i 22 -a 1 -x {2.0 6.0 8 ------- null}
h -t 0.056 -s 2 -d 3 -p cbr -e 750 -c 1 -i 22 -a 1 -x {2.0 6.0 -1 ------- null}
r -t 0.056 -s 3 -d 4 -p ping -e 750 -c 0 -i 15 -a 0 -x {1.0 5.0 -1 ------- null}
+ -t 0.056 -s 4 -d 5 -p ping -e 750 -c 0 -i 15 -a 0 -x {1.0 5.0 -1 ------- null}
- -t 0.056 -s 4 -d 5 -p ping -e 750 -c 0 -i 15 -a 0 -x {1.0 5.0 -1 ------- null}
h -t 0.056 -s 4 -d 5 -p ping -e 750 -c 0 -i 15 -a 0 -x {1.0 5.0 -1 ------- null}
r -t 0.057 -s 4 -d 5 -p ping -e 750 -c 0 -i 12 -a 0 -x {1.0 5.0 -1 ------- null}
+ -t 0.057 -s 5 -d 4 -p ping -e 64 -c 0 -i 23 -a 0 -x {5.0 1.0 -1 ------- null}
- -t 0.057 -s 5 -d 4 -p ping -e 64 -c 0 -i 23 -a 0 -x {5.0 1.0 -1 ------- null}
h -t 0.057 -s 5 -d 4 -p ping -e 64 -c 0 -i 23 -a 0 -x {5.0 1.0 -1 ------- null}
r -t 0.058512 -s 5 -d 4 -p ping -e 64 -c 0 -i 23 -a 0 -x {5.0 1.0 -1 ------- null}
+ -t 0.058512 -s 4 -d 3 -p ping -e 64 -c 0 -i 23 -a 0 -x {5.0 1.0 -1 ------- null}
- -t 0.058512 -s 4 -d 3 -p ping -e 64 -c 0 -i 23 -a 0 -x {5.0 1.0 -1 ------- null}
h -t 0.058512 -s 4 -d 3 -p ping -e 64 -c 0 -i 23 -a 0 -x {5.0 1.0 -1 ------- null}
r -t 0.059 -s 4 -d 6 -p cbr -e 750 -c 1 -i 13 -a 1 -x {2.0 6.0 5 ------- null}
- -t 0.059 -s 3 -d 4 -p ping -e 750 -c 0 -i 18 -a 0 -x {1.0 5.0 -1 ------- null}
h -t 0.059 -s 3 -d 4 -p ping -e 750 -c 0 -i 18 -a 0 -x {1.0 5.0 -1 ------- null}
r -t 0.0598533333333333 -s 4 -d 3 -p ping -e 64 -c 0 -i 23 -a 0 -x {5.0 1.0 -1 ------- null}
+ -t 0.0598533333333333 -s 3 -d 1 -p ping -e 64 -c 0 -i 23 -a 0 -x {5.0 1.0 -1 ------- null}
- -t 0.0598533333333333 -s 3 -d 1 -p ping -e 64 -c 0 -i 23 -a 0 -x {5.0 1.0 -1 ------- null}
h -t 0.0598533333333333 -s 3 -d 1 -p ping -e 64 -c 0 -i 23 -a 0 -x {5.0 1.0 -1 ------- null}
r -t 0.06 -s 3 -d 4 -p cbr -e 750 -c 1 -i 16 -a 1 -x {2.0 6.0 6 ------- null}
+ -t 0.06 -s 4 -d 6 -p cbr -e 750 -c 1 -i 16 -a 1 -x {2.0 6.0 6 ------- null}
- -t 0.06 -s 4 -d 6 -p cbr -e 750 -c 1 -i 16 -a 1 -x {2.0 6.0 6 ------- null}
h -t 0.06 -s 4 -d 6 -p cbr -e 750 -c 1 -i 16 -a 1 -x {2.0 6.0 -1 ------- null}
r -t 0.0613653333333333 -s 3 -d 1 -p ping -e 64 -c 0 -i 23 -a 0 -x {5.0 1.0 -1 ------- null}
+ -t 0.063 -s 1 -d 3 -p ping -e 750 -c 0 -i 24 -a 0 -x {1.0 5.0 -1 ------- null}
- -t 0.063 -s 1 -d 3 -p ping -e 750 -c 0 -i 24 -a 0 -x {1.0 5.0 -1 ------- null}
h -t 0.063 -s 1 -d 3 -p ping -e 750 -c 0 -i 24 -a 0 -x {1.0 5.0 -1 ------- null}
r -t 0.063 -s 1 -d 3 -p ping -e 750 -c 0 -i 21 -a 0 -x {1.0 5.0 -1 ------- null}
+ -t 0.063 -s 3 -d 4 -p ping -e 750 -c 0 -i 21 -a 0 -x {1.0 5.0 -1 ------- null}
r -t 0.063 -s 2 -d 3 -p cbr -e 750 -c 1 -i 22 -a 1 -x {2.0 6.0 8 ------- null}
+ -t 0.063 -s 3 -d 4 -p cbr -e 750 -c 1 -i 22 -a 1 -x {2.0 6.0 8 ------- null}
d -t 0.063 -s 3 -d 4 -p cbr -e 750 -c 1 -i 22 -a 1 -x {2.0 6.0 8 ------- null}
+ -t 0.063 -s 2 -d 3 -p cbr -e 750 -c 1 -i 25 -a 1 -x {2.0 6.0 9 ------- null}
- -t 0.063 -s 2 -d 3 -p cbr -e 750 -c 1 -i 25 -a 1 -x {2.0 6.0 9 ------- null}
h -t 0.063 -s 2 -d 3 -p cbr -e 750 -c 1 -i 25 -a 1 -x {2.0 6.0 -1 ------- null}
r -t 0.063 -s 4 -d 5 -p ping -e 750 -c 0 -i 15 -a 0 -x {1.0 5.0 -1 ------- null}
+ -t 0.063 -s 5 -d 4 -p ping -e 64 -c 0 -i 26 -a 0 -x {5.0 1.0 -1 ------- null}
- -t 0.063 -s 5 -d 4 -p ping -e 64 -c 0 -i 26 -a 0 -x {5.0 1.0 -1 ------- null}
h -t 0.063 -s 5 -d 4 -p ping -e 64 -c 0 -i 26 -a 0 -x {5.0 1.0 -1 ------- null}
- -t 0.063 -s 3 -d 4 -p cbr -e 750 -c 1 -i 19 -a 1 -x {2.0 6.0 7 ------- null}
h -t 0.063 -s 3 -d 4 -p cbr -e 750 -c 1 -i 19 -a 1 -x {2.0 6.0 -1 ------- null}
r -t 0.064 -s 3 -d 4 -p ping -e 750 -c 0 -i 18 -a 0 -x {1.0 5.0 -1 ------- null}
+ -t 0.064 -s 4 -d 5 -p ping -e 750 -c 0 -i 18 -a 0 -x {1.0 5.0 -1 ------- null}
- -t 0.064 -s 4 -d 5 -p ping -e 750 -c 0 -i 18 -a 0 -x {1.0 5.0 -1 ------- null}
h -t 0.064 -s 4 -d 5 -p ping -e 750 -c 0 -i 18 -a 0 -x {1.0 5.0 -1 ------- null}
r -t 0.064512 -s 5 -d 4 -p ping -e 64 -c 0 -i 26 -a 0 -x {5.0 1.0 -1 ------- null}
+ -t 0.064512 -s 4 -d 3 -p ping -e 64 -c 0 -i 26 -a 0 -x {5.0 1.0 -1 ------- null}
- -t 0.064512 -s 4 -d 3 -p ping -e 64 -c 0 -i 26 -a 0 -x {5.0 1.0 -1 ------- null}
h -t 0.064512 -s 4 -d 3 -p ping -e 64 -c 0 -i 26 -a 0 -x {5.0 1.0 -1 ------- null}
r -t 0.0658533333333333 -s 4 -d 3 -p ping -e 64 -c 0 -i 26 -a 0 -x {5.0 1.0 -1 ------- null}
+ -t 0.0658533333333333 -s 3 -d 1 -p ping -e 64 -c 0 -i 26 -a 0 -x {5.0 1.0 -1 ------- null}
- -t 0.0658533333333333 -s 3 -d 1 -p ping -e 64 -c 0 -i 26 -a 0 -x {5.0 1.0 -1 ------- null}
h -t 0.0658533333333333 -s 3 -d 1 -p ping -e 64 -c 0 -i 26 -a 0 -x {5.0 1.0 -1 ------- null}
r -t 0.067 -s 4 -d 6 -p cbr -e 750 -c 1 -i 16 -a 1 -x {2.0 6.0 6 ------- null}
- -t 0.067 -s 3 -d 4 -p ping -e 750 -c 0 -i 21 -a 0 -x {1.0 5.0 -1 ------- null}
h -t 0.067 -s 3 -d 4 -p ping -e 750 -c 0 -i 21 -a 0 -x {1.0 5.0 -1 ------- null}
r -t 0.0673653333333333 -s 3 -d 1 -p ping -e 64 -c 0 -i 26 -a 0 -x {5.0 1.0 -1 ------- null}
r -t 0.068 -s 3 -d 4 -p cbr -e 750 -c 1 -i 19 -a 1 -x {2.0 6.0 7 ------- null}
+ -t 0.068 -s 4 -d 6 -p cbr -e 750 -c 1 -i 19 -a 1 -x {2.0 6.0 7 ------- null}
- -t 0.068 -s 4 -d 6 -p cbr -e 750 -c 1 -i 19 -a 1 -x {2.0 6.0 7 ------- null}
h -t 0.068 -s 4 -d 6 -p cbr -e 750 -c 1 -i 19 -a 1 -x {2.0 6.0 -1 ------- null}
+ -t 0.07 -s 1 -d 3 -p ping -e 750 -c 0 -i 27 -a 0 -x {1.0 5.0 -1 ------- null}
- -t 0.07 -s 1 -d 3 -p ping -e 750 -c 0 -i 27 -a 0 -x {1.0 5.0 -1 ------- null}
h -t 0.07 -s 1 -d 3 -p ping -e 750 -c 0 -i 27 -a 0 -x {1.0 5.0 -1 ------- null}
r -t 0.07 -s 1 -d 3 -p ping -e 750 -c 0 -i 24 -a 0 -x {1.0 5.0 -1 ------- null}
+ -t 0.07 -s 3 -d 4 -p ping -e 750 -c 0 -i 24 -a 0 -x {1.0 5.0 -1 ------- null}
r -t 0.07 -s 2 -d 3 -p cbr -e 750 -c 1 -i 25 -a 1 -x {2.0 6.0 9 ------- null}
+ -t 0.07 -s 3 -d 4 -p cbr -e 750 -c 1 -i 25 -a 1 -x {2.0 6.0 9 ------- null}
+ -t 0.07 -s 2 -d 3 -p cbr -e 750 -c 1 -i 28 -a 1 -x {2.0 6.0 10 ------- null}
- -t 0.07 -s 2 -d 3 -p cbr -e 750 -c 1 -i 28 -a 1 -x {2.0 6.0 10 ------- null}
h -t 0.07 -s 2 -d 3 -p cbr -e 750 -c 1 -i 28 -a 1 -x {2.0 6.0 -1 ------- null}
r -t 0.071 -s 4 -d 5 -p ping -e 750 -c 0 -i 18 -a 0 -x {1.0 5.0 -1 ------- null}
+ -t 0.071 -s 5 -d 4 -p ping -e 64 -c 0 -i 29 -a 0 -x {5.0 1.0 -1 ------- null}
- -t 0.071 -s 5 -d 4 -p ping -e 64 -c 0 -i 29 -a 0 -x {5.0 1.0 -1 ------- null}
h -t 0.071 -s 5 -d 4 -p ping -e 64 -c 0 -i 29 -a 0 -x {5.0 1.0 -1 ------- null}
- -t 0.071 -s 3 -d 4 -p ping -e 750 -c 0 -i 24 -a 0 -x {1.0 5.0 -1 ------- null}
h -t 0.071 -s 3 -d 4 -p ping -e 750 -c 0 -i 24 -a 0 -x {1.0 5.0 -1 ------- null}
r -t 0.072 -s 3 -d 4 -p ping -e 750 -c 0 -i 21 -a 0 -x {1.0 5.0 -1 ------- null}
+ -t 0.072 -s 4 -d 5 -p ping -e 750 -c 0 -i 21 -a 0 -x {1.0 5.0 -1 ------- null}
- -t 0.072 -s 4 -d 5 -p ping -e 750 -c 0 -i 21 -a 0 -x {1.0 5.0 -1 ------- null}
h -t 0.072 -s 4 -d 5 -p ping -e 750 -c 0 -i 21 -a 0 -x {1.0 5.0 -1 ------- null}
r -t 0.072512 -s 5 -d 4 -p ping -e 64 -c 0 -i 29 -a 0 -x {5.0 1.0 -1 ------- null}
+ -t 0.072512 -s 4 -d 3 -p ping -e 64 -c 0 -i 29 -a 0 -x {5.0 1.0 -1 ------- null}
- -t 0.072512 -s 4 -d 3 -p ping -e 64 -c 0 -i 29 -a 0 -x {5.0 1.0 -1 ------- null}
h -t 0.072512 -s 4 -d 3 -p ping -e 64 -c 0 -i 29 -a 0 -x {5.0 1.0 -1 ------- null}
r -t 0.0738533333333334 -s 4 -d 3 -p ping -e 64 -c 0 -i 29 -a 0 -x {5.0 1.0 -1 ------- null}
+ -t 0.0738533333333334 -s 3 -d 1 -p ping -e 64 -c 0 -i 29 -a 0 -x {5.0 1.0 -1 ------- null}
- -t 0.0738533333333334 -s 3 -d 1 -p ping -e 64 -c 0 -i 29 -a 0 -x {5.0 1.0 -1 ------- null}
h -t 0.0738533333333334 -s 3 -d 1 -p ping -e 64 -c 0 -i 29 -a 0 -x {5.0 1.0 -1 ------- null}
r -t 0.075 -s 4 -d 6 -p cbr -e 750 -c 1 -i 19 -a 1 -x {2.0 6.0 7 ------- null}
- -t 0.075 -s 3 -d 4 -p cbr -e 750 -c 1 -i 25 -a 1 -x {2.0 6.0 9 ------- null}
h -t 0.075 -s 3 -d 4 -p cbr -e 750 -c 1 -i 25 -a 1 -x {2.0 6.0 -1 ------- null}
r -t 0.0753653333333334 -s 3 -d 1 -p ping -e 64 -c 0 -i 29 -a 0 -x {5.0 1.0 -1 ------- null}
r -t 0.076 -s 3 -d 4 -p ping -e 750 -c 0 -i 24 -a 0 -x {1.0 5.0 -1 ------- null}
+ -t 0.076 -s 4 -d 5 -p ping -e 750 -c 0 -i 24 -a 0 -x {1.0 5.0 -1 ------- null}
+ -t 0.077 -s 1 -d 3 -p ping -e 750 -c 0 -i 30 -a 0 -x {1.0 5.0 -1 ------- null}
- -t 0.077 -s 1 -d 3 -p ping -e 750 -c 0 -i 30 -a 0 -x {1.0 5.0 -1 ------- null}
h -t 0.077 -s 1 -d 3 -p ping -e 750 -c 0 -i 30 -a 0 -x {1.0 5.0 -1 ------- null}
r -t 0.077 -s 1 -d 3 -p ping -e 750 -c 0 -i 27 -a 0 -x {1.0 5.0 -1 ------- null}
+ -t 0.077 -s 3 -d 4 -p ping -e 750 -c 0 -i 27 -a 0 -x {1.0 5.0 -1 ------- null}
r -t 0.077 -s 2 -d 3 -p cbr -e 750 -c 1 -i 28 -a 1 -x {2.0 6.0 10 ------- null}
+ -t 0.077 -s 3 -d 4 -p cbr -e 750 -c 1 -i 28 -a 1 -x {2.0 6.0 10 ------- null}
+ -t 0.077 -s 2 -d 3 -p cbr -e 750 -c 1 -i 31 -a 1 -x {2.0 6.0 11 ------- null}
- -t 0.077 -s 2 -d 3 -p cbr -e 750 -c 1 -i 31 -a 1 -x {2.0 6.0 11 ------- null}
h -t 0.077 -s 2 -d 3 -p cbr -e 750 -c 1 -i 31 -a 1 -x {2.0 6.0 -1 ------- null}
- -t 0.078 -s 4 -d 5 -p ping -e 750 -c 0 -i 24 -a 0 -x {1.0 5.0 -1 ------- null}
h -t 0.078 -s 4 -d 5 -p ping -e 750 -c 0 -i 24 -a 0 -x {1.0 5.0 -1 ------- null}
r -t 0.079 -s 4 -d 5 -p ping -e 750 -c 0 -i 21 -a 0 -x {1.0 5.0 -1 ------- null}
+ -t 0.079 -s 5 -d 4 -p ping -e 64 -c 0 -i 32 -a 0 -x {5.0 1.0 -1 ------- null}
- -t 0.079 -s 5 -d 4 -p ping -e 64 -c 0 -i 32 -a 0 -x {5.0 1.0 -1 ------- null}
h -t 0.079 -s 5 -d 4 -p ping -e 64 -c 0 -i 32 -a 0 -x {5.0 1.0 -1 ------- null}
- -t 0.079 -s 3 -d 4 -p ping -e 750 -c 0 -i 27 -a 0 -x {1.0 5.0 -1 ------- null}
h -t 0.079 -s 3 -d 4 -p ping -e 750 -c 0 -i 27 -a 0 -x {1.0 5.0 -1 ------- null}
r -t 0.08 -s 3 -d 4 -p cbr -e 750 -c 1 -i 25 -a 1 -x {2.0 6.0 9 ------- null}
+ -t 0.08 -s 4 -d 6 -p cbr -e 750 -c 1 -i 25 -a 1 -x {2.0 6.0 9 ------- null}
- -t 0.08 -s 4 -d 6 -p cbr -e 750 -c 1 -i 25 -a 1 -x {2.0 6.0 9 ------- null}
h -t 0.08 -s 4 -d 6 -p cbr -e 750 -c 1 -i 25 -a 1 -x {2.0 6.0 -1 ------- null}
r -t 0.080512 -s 5 -d 4 -p ping -e 64 -c 0 -i 32 -a 0 -x {5.0 1.0 -1 ------- null}
+ -t 0.080512 -s 4 -d 3 -p ping -e 64 -c 0 -i 32 -a 0 -x {5.0 1.0 -1 ------- null}
- -t 0.080512 -s 4 -d 3 -p ping -e 64 -c 0 -i 32 -a 0 -x {5.0 1.0 -1 ------- null}
h -t 0.080512 -s 4 -d 3 -p ping -e 64 -c 0 -i 32 -a 0 -x {5.0 1.0 -1 ------- null}
r -t 0.0818533333333334 -s 4 -d 3 -p ping -e 64 -c 0 -i 32 -a 0 -x {5.0 1.0 -1 ------- null}
+ -t 0.0818533333333334 -s 3 -d 1 -p ping -e 64 -c 0 -i 32 -a 0 -x {5.0 1.0 -1 ------- null}
- -t 0.0818533333333334 -s 3 -d 1 -p ping -e 64 -c 0 -i 32 -a 0 -x {5.0 1.0 -1 ------- null}
h -t 0.0818533333333334 -s 3 -d 1 -p ping -e 64 -c 0 -i 32 -a 0 -x {5.0 1.0 -1 ------- null}
- -t 0.083 -s 3 -d 4 -p cbr -e 750 -c 1 -i 28 -a 1 -x {2.0 6.0 10 ------- null}
h -t 0.083 -s 3 -d 4 -p cbr -e 750 -c 1 -i 28 -a 1 -x {2.0 6.0 -1 ------- null}
r -t 0.0833653333333334 -s 3 -d 1 -p ping -e 64 -c 0 -i 32 -a 0 -x {5.0 1.0 -1 ------- null}
+ -t 0.084 -s 1 -d 3 -p ping -e 750 -c 0 -i 33 -a 0 -x {1.0 5.0 -1 ------- null}
- -t 0.084 -s 1 -d 3 -p ping -e 750 -c 0 -i 33 -a 0 -x {1.0 5.0 -1 ------- null}
h -t 0.084 -s 1 -d 3 -p ping -e 750 -c 0 -i 33 -a 0 -x {1.0 5.0 -1 ------- null}
r -t 0.084 -s 1 -d 3 -p ping -e 750 -c 0 -i 30 -a 0 -x {1.0 5.0 -1 ------- null}