+ 0.007 3 4 ping 750 ------- 0 1.0 5.0 -1 0
- 0.007 3 4 ping 750 ------- 0 1.0 5.0 -1 0
+ 0.007 3 4 cbr 750 ------- 1 2.0 6.0 0 1
- 0.011 3 4 cbr 750 ------- 1 2.0 6.0 0 1
r 0.012 3 4 ping 750 ------- 0 1.0 5.0 -1 0
+ 0.014 3 4 ping 750 ------- 0 1.0 5.0 -1 2
+ 0.014 3 4 cbr 750 ------- 1 2.0 6.0 1 3
- 0.015 3 4 ping 750 ------- 0 1.0 5.0 -1 2
r 0.016 3 4 cbr 750 ------- 1 2.0 6.0 0 1
- 0.019 3 4 cbr 750 ------- 1 2.0 6.0 1 3
r 0.02 3 4 ping 750 ------- 0 1.0 5.0 -1 2
+ 0.021 3 4 ping 750 ------- 0 1.0 5.0 -1 4
+ 0.021 3 4 cbr 750 ------- 1 2.0 6.0 2 5
r 0.021853 4 3 ping 64 ------- 0 5.0 1.0 -1 6
r 0.023 4 6 cbr 750 ------- 1 2.0 6.0 0 1
- 0.023 3 4 ping 750 ------- 0 1.0 5.0 -1 4
r 0.024 3 4 cbr 750 ------- 1 2.0 6.0 1 3
- 0.027 3 4 cbr 750 ------- 1 2.0 6.0 2 5
+ 0.028 3 4 ping 750 ------- 0 1.0 5.0 -1 7
+ 0.028 3 4 cbr 750 ------- 1 2.0 6.0 3 8
r 0.028 3 4 ping 750 ------- 0 1.0 5.0 -1 4
r 0.029853 4 3 ping 64 ------- 0 5.0 1.0 -1 9
- 0.031 3 4 ping 750 ------- 0 1.0 5.0 -1 7
r 0.032 3 4 cbr 750 ------- 1 2.0 6.0 2 5
+ 0.035 3 4 ping 750 ------- 0 1.0 5.0 -1 10
+ 0.035 3 4 cbr 750 ------- 1 2.0 6.0 4 11
d 0.035 3 4 cbr 750 ------- 1 2.0 6.0 4 11
- 0.035 3 4 cbr 750 ------- 1 2.0 6.0 3 8
r 0.036 3 4 ping 750 ------- 0 1.0 5.0 -1 7
r 0.037853 4 3 ping 64 ------- 0 5.0 1.0 -1 14
- 0.039 3 4 ping 750 ------- 0 1.0 5.0 -1 10
r 0.04 3 4 cbr 750 ------- 1 2.0 6.0 3 8
+ 0.042 3 4 ping 750 ------- 0 1.0 5.0 -1 12
+ 0.042 3 4 cbr 750 ------- 1 2.0 6.0 5 13
r 0.043 4 5 ping 750 ------- 0 1.0 5.0 -1 7
- 0.043 3 4 ping 750 ------- 0 1.0 5.0 -1 12
r 0.044 3 4 ping 750 ------- 0 1.0 5.0 -1 10
r 0.045853 4 3 ping 64 ------- 0 5.0 1.0 -1 17
- 0.047 3 4 cbr 750 ------- 1 2.0 6.0 5 13
r 0.048 3 4 ping 750 ------- 0 1.0 5.0 -1 12
+ 0.049 3 4 ping 750 ------- 0 1.0 5.0 -1 15
+ 0.049 3 4 cbr 750 ------- 1 2.0 6.0 6 16
- 0.051 3 4 ping 750 ------- 0 1.0 5.0 -1 15
r 0.052 3 4 cbr 750 ------- 1 2.0 6.0 5 13
r 0.053853 4 3 ping 64 ------- 0 5.0 1.0 -1 20
- 0.055 3 4 cbr 750 ------- 1 2.0 6.0 6 16
+ 0.056 3 4 ping 750 ------- 0 1.0 5.0 -1 18
+ 0.056 3 4 cbr 750 ------- 1 2.0 6.0 7 19
r 0.056 3 4 ping 750 ------- 0 1.0 5.0 -1 15
- 0.059 3 4 ping 750 ------- 0 1.0 5.0 -1 18
r 0.059853 4 3 ping 64 ------- 0 5.0 1.0 -1 23
r 0.06 3 4 cbr 750 ------- 1 2.0 6.0 6 16
+ 0.063 3 4 ping 750 ------- 0 1.0 5.0 -1 21
+ 0.063 3 4 cbr 750 ------- 1 2.0 6.0 8 22
d 0.063 3 4 cbr 750 ------- 1 2.0 6.0 8 22
r 0.063 4 5 ping 750 ------- 0 1.0 5.0 -1 15
- 0.063 3 4 cbr 750 ------- 1 2.0 6.0 7 19
r 0.064 3 4 ping 750 ------- 0 1.0 5.0 -1 18
r 0.065853 4 3 ping 64 ------- 0 5.0 1.0 -1 26
- 0.067 3 4 ping 750 ------- 0 1.0 5.0 -1 21
r 0.068 3 4 cbr 750 ------- 1 2.0 6.0 7 19
+ 0.07 3 4 ping 750 ------- 0 1.0 5.0 -1 24
+ 0.07 3 4 cbr 750 ------- 1 2.0 6.0 9 25
- 0.071 3 4 ping 750 ------- 0 1.0 5.0 -1 24
r 0.072 3 4 ping 750 ------- 0 1.0 5.0 -1 21
r 0.073853 4 3 ping 64 ------- 0 5.0 1.0 -1 29
- 0.075 3 4 cbr 750 ------- 1 2.0 6.0 9 25
r 0.076 3 4 ping 750 ------- 0 1.0 5.0 -1 24
+ 0.077 3 4 ping 750 ------- 0 1.0 5.0 -1 27
+ 0.077 3 4 cbr 750 ------- 1 2.0 6.0 10 28
- 0.079 3 4 ping 750 ------- 0 1.0 5.0 -1 27
r 0.08 3 4 cbr 750 ------- 1 2.0 6.0 9 25
r 0.081853 4 3 ping 64 ------- 0 5.0 1.0 -1 32
- 0.083 3 4 cbr 750 ------- 1 2.0 6.0 10 28
+ 0.084 3 4 ping 750 ------- 0 1.0 5.0 -1 30
+ 0.084 3 4 cbr 750 ------- 1 2.0 6.0 11 31
r 0.084 3 4 ping 750 ------- 0 1.0 5.0 -1 27
- 0.087 3 4 ping 750 ------- 0 1.0 5.0 -1 30
r 0.087853 4 3 ping 64 ------- 0 5.0 1.0 -1 35
r 0.088 3 4 cbr 750 ------- 1 2.0 6.0 10 28
+ 0.091 3 4 ping 750 ------- 0 1.0 5.0 -1 33
+ 0.091 3 4 cbr 750 ------- 1 2.0 6.0 12 34
d 0.091 3 4 cbr 750 ------- 1 2.0 6.0 12 34
- 0.091 3 4 cbr 750 ------- 1 2.0 6.0 11 31
r 0.092 3 4 ping 750 ------- 0 1.0 5.0 -1 30
r 0.093853 4 3 ping 64 ------- 0 5.0 1.0 -1 38
- 0.095 3 4 ping 750 ------- 0 1.0 5.0 -1 33
r 0.096 3 4 cbr 750 ------- 1 2.0 6.0 11 31
+ 0.098 3 4 ping 750 ------- 0 1.0 5.0 -1 36
+ 0.098 3 4 cbr 750 ------- 1 2.0 6.0 13 37
- 0.099 3 4 ping 750 ------- 0 1.0 5.0 -1 36
r 0.1 3 4 ping 750 ------- 0 1.0 5.0 -1 33
r 0.101853 4 3 ping 64 ------- 0 5.0 1.0 -1 41
r 0.103 4 6 cbr 750 ------- 1 2.0 6.0 11 31
- 0.103 3 4 cbr 750 ------- 1 2.0 6.0 13 37
r 0.104 3 4 ping 750 ------- 0 1.0 5.0 -1 36
+ 0.105 3 4 ping 750 ------- 0 1.0 5.0 -1 39
+ 0.105 3 4 cbr 750 ------- 1 2.0 6.0 14 40
- 0.107 3 4 ping 750 ------- 0 1.0 5.0 -1 39
r 0.108 3 4 cbr 750 ------- 1 2.0 6.0 13 37
r 0.109853 4 3 ping 64 ------- 0 5.0 1.0 -1 44
- 0.111 3 4 cbr 750 ------- 1 2.0 6.0 14 40
+ 0.112 3 4 ping 750 ------- 0 1.0 5.0 -1 42
+ 0.112 3 4 cbr 750 ------- 1 2.0 6.0 15 43
r 0.112 3 4 ping 750 ------- 0 1.0 5.0 -1 39
r 0.113 4 5 ping 750 ------- 0 1.0 5.0 -1 36
- 0.115 3 4 ping 750 ------- 0 1.0 5.0 -1 42
r 0.115853 4 3 ping 64 ------- 0 5.0 1.0 -1 47
r 0.116 3 4 cbr 750 ------- 1 2.0 6.0 14 40
+ 0.119 3 4 ping 750 ------- 0 1.0 5.0 -1 45
+ 0.119 3 4 cbr 750 ------- 1 2.0 6.0 16 46
d 0.119 3 4 cbr 750 ------- 1 2.0 6.0 16 46
- 0.119 3 4 cbr 750 ------- 1 2.0 6.0 15 43
r 0.12 3 4 ping 750 ------- 0 1.0 5.0 -1 42
r 0.121853 4 3 ping 64 ------- 0 5.0 1.0 -1 50
r 0.123 4 6 cbr 750 ------- 1 2.0 6.0 14 40
- 0.123 3 4 ping 750 ------- 0 1.0 5.0 -1 45
r 0.124 3 4 cbr 750 ------- 1 2.0 6.0 15 43
+ 0.126 3 4 ping 750 ------- 0 1.0 5.0 -1 48
+ 0.126 3 4 cbr 750 ------- 1 2.0 6.0 17 49
- 0.127 3 4 ping 750 ------- 0 1.0 5.0 -1 48
r 0.128 3 4 ping 750 ------- 0 1.0 5.0 -1 45
r 0.129853 4 3 ping 64 ------- 0 5.0 1.0 -1 53
- 0.131 3 4 cbr 750 ------- 1 2.0 6.0 17 49
r 0.132 3 4 ping 750 ------- 0 1.0 5.0 -1 48
+ 0.133 3 4 ping 750 ------- 0 1.0 5.0 -1 51
+ 0.133 3 4 cbr 750 ------- 1 2.0 6.0 18 52
- 0.135 3 4 ping 750 ------- 0 1.0 5.0 -1 51
r 0.136 3 4 cbr 750 ------- 1 2.0 6.0 17 49
r 0.137853 4 3 ping 64 ------- 0 5.0 1.0 -1 56
- 0.139 3 4 cbr 750 ------- 1 2.0 6.0 18 52
+ 0.14 3 4 ping 750 ------- 0 1.0 5.0 -1 54
+ 0.14 3 4 cbr 750 ------- 1 2.0 6.0 19 55
r 0.14 3 4 ping 750 ------- 0 1.0 5.0 -1 51
r 0.143 4 6 cbr 750 ------- 1 2.0 6.0 17 49
- 0.143 3 4 ping 750 ------- 0 1.0 5.0 -1 54
r 0.143853 4 3 ping 64 ------- 0 5.0 1.0 -1 58
r 0.144 3 4 cbr 750 ------- 1 2.0 6.0 18 52
+ 0.147 3 4 cbr 750 ------- 1 2.0 6.0 20 57
- 0.147 3 4 cbr 750 ------- 1 2.0 6.0 19 55
r 0.148 3 4 ping 750 ------- 0 1.0 5.0 -1 54
r 0.149853 4 3 ping 64 ------- 0 5.0 1.0 -1 60
- 0.151 3 4 cbr 750 ------- 1 2.0 6.0 20 57
r 0.152 3 4 cbr 750 ------- 1 2.0 6.0 19 55
+ 0.154 3 4 cbr 750 ------- 1 2.0 6.0 21 59
- 0.155 3 4 cbr 750 ------- 1 2.0 6.0 21 59
r 0.156 3 4 cbr 750 ------- 1 2.0 6.0 20 57
r 0.157853 4 3 ping 64 ------- 0 5.0 1.0 -1 62
r 0.16 3 4 cbr 750 ------- 1 2.0 6.0 21 59
+ 0.161 3 4 cbr 750 ------- 1 2.0 6.0 22 61
- 0.161 3 4 cbr 750 ------- 1 2.0 6.0 22 61
r 0.166 3 4 cbr 750 ------- 1 2.0 6.0 22 61
+ 0.168 3 4 cbr 750 ------- 1 2.0 6.0 23 63
- 0.168 3 4 cbr 750 ------- 1 2.0 6.0 23 63
r 0.173 3 4 cbr 750 ------- 1 2.0 6.0 23 63
+ 0.173 4 6 cbr 750 ------- 1 2.0 6.0 23 63
+ 0.175 3 4 cbr 750 ------- 1 2.0 6.0 24 64
- 0.175 3 4 cbr 750 ------- 1 2.0 6.0 24 64
r 0.18 3 4 cbr 750 ------- 1 2.0 6.0 24 64
+ 0.182 3 4 cbr 750 ------- 1 2.0 6.0 25 65
- 0.182 3 4 cbr 750 ------- 1 2.0 6.0 25 65
r 0.183 4 6 cbr 750 ------- 1 2.0 6.0 23 63
r 0.187 3 4 cbr 750 ------- 1 2.0 6.0 25 65
+ 0.189 3 4 cbr 750 ------- 1 2.0 6.0 26 66
- 0.189 3 4 cbr 750 ------- 1 2.0 6.0 26 66
r 0.194 3 4 cbr 750 ------- 1 2.0 6.0 26 66
+ 0.196 3 4 cbr 750 ------- 1 2.0 6.0 27 67
- 0.196 3 4 cbr 750 ------- 1 2.0 6.0 27 67
r 0.201 3 4 cbr 750 ------- 1 2.0 6.0 27 67
+ 0.203 3 4 cbr 750 ------- 1 2.0 6.0 28 68
- 0.203 3 4 cbr 750 ------- 1 2.0 6.0 28 68
r 0.208 3 4 cbr 750 ------- 1 2.0 6.0 28 68
+ 0.21 3 4 cbr 750 ------- 1 2.0 6.0 29 69
- 0.21 3 4 cbr 750 ------- 1 2.0 6.0 29 69
r 0.215 3 4 cbr 750 ------- 1 2.0 6.0 29 69
+ 0.217 3 4 cbr 750 ------- 1 2.0 6.0 30 70
- 0.217 3 4 cbr 750 ------- 1 2.0 6.0 30 70
r 0.222 3 4 cbr 750 ------- 1 2.0 6.0 30 70
+ 0.224 3 4 cbr 750 ------- 1 2.0 6.0 31 71
- 0.224 3 4 cbr 750 ------- 1 2.0 6.0 31 71
r 0.229 3 4 cbr 750 ------- 1 2.0 6.0 31 71
+ 0.231 3 4 cbr 750 ------- 1 2.0 6.0 32 72
- 0.231 3 4 cbr 750 ------- 1 2.0 6.0 32 72
r 0.236 3 4 cbr 750 ------- 1 2.0 6.0 32 72
+ 0.238 3 4 cbr 750 ------- 1 2.0 6.0 33 73
- 0.238 3 4 cbr 750 ------- 1 2.0 6.0 33 73
r 0.243 4 6 cbr 750 ------- 1 2.0 6.0 32 72
r 0.243 3 4 cbr 750 ------- 1 2.0 6.0 33 73
+ 0.243 4 6 cbr 750 ------- 1 2.0 6.0 33 73
- 0.243 4 6 cbr 750 ------- 1 2.0 6.0 33 73
+ 0.245 3 4 cbr 750 ------- 1 2.0 6.0 34 74
- 0.245 3 4 cbr 750 ------- 1 2.0 6.0 34 74
r 0.25 3 4 cbr 750 ------- 1 2.0 6.0 34 74
+ 0.252 3 4 cbr 750 ------- 1 2.0 6.0 35 75
- 0.252 3 4 cbr 750 ------- 1 2.0 6.0 35 75
r 0.257 3 4 cbr 750 ------- 1 2.0 6.0 35 75
+ 0.259 3 4 cbr 750 ------- 1 2.0 6.0 36 76
- 0.259 3 4 cbr 750 ------- 1 2.0 6.0 36 76
r 0.264 3 4 cbr 750 ------- 1 2.0 6.0 36 76
+ 0.266 3 4 cbr 750 ------- 1 2.0 6.0 37 77
- 0.266 3 4 cbr 750 ------- 1 2.0 6.0 37 77
r 0.271 3 4 cbr 750 ------- 1 2.0 6.0 37 77
+ 0.273 3 4 cbr 750 ------- 1 2.0 6.0 38 78
- 0.273 3 4 cbr 750 ------- 1 2.0 6.0 38 78
r 0.278 3 4 cbr 750 ------- 1 2.0 6.0 38 78
+ 0.28 3 4 cbr 750 ------- 1 2.0 6.0 39 79
- 0.28 3 4 cbr 750 ------- 1 2.0 6.0 39 79
r 0.285 3 4 cbr 750 ------- 1 2.0 6.0 39 79
+ 0.287 3 4 cbr 750 ------- 1 2.0 6.0 40 80
- 0.287 3 4 cbr 750 ------- 1 2.0 6.0 40 80
r 0.292 3 4 cbr 750 ------- 1 2.0 6.0 40 80
+ 0.294 3 4 cbr 750 ------- 1 2.0 6.0 41 81
- 0.294 3 4 cbr 750 ------- 1 2.0 6.0 41 81
r 0.299 3 4 cbr 750 ------- 1 2.0 6.0 41 81
+ 0.301 3 4 cbr 750 ------- 1 2.0 6.0 42 82
- 0.301 3 4 cbr 750 ------- 1 2.0 6.0 42 82
r 0.306 3 4 cbr 750 ------- 1 2.0 6.0 42 82
+ 0.308 3 4 cbr 750 ------- 1 2.0 6.0 43 83
- 0.308 3 4 cbr 750 ------- 1 2.0 6.0 43 83
r 0.313 4 6 cbr 750 ------- 1 2.0 6.0 42 82
r 0.313 3 4 cbr 750 ------- 1 2.0 6.0 43 83
+ 0.313 4 6 cbr 750 ------- 1 2.0 6.0 43 83
- 0.313 4 6 cbr 750 ------- 1 2.0 6.0 43 83
+ 0.315 3 4 cbr 750 ------- 1 2.0 6.0 44 84
- 0.315 3 4 cbr 750 ------- 1 2.0 6.0 44 84
r 0.32 3 4 cbr 750 ------- 1 2.0 6.0 44 84
+ 0.322 3 4 cbr 750 ------- 1 2.0 6.0 45 85
- 0.322 3 4 cbr 750 ------- 1 2.0 6.0 45 85
r 0.327 3 4 cbr 750 ------- 1 2.0 6.0 45 85
+ 0.329 3 4 cbr 750 ------- 1 2.0 6.0 46 86
- 0.329 3 4 cbr 750 ------- 1 2.0 6.0 46 86
r 0.334 3 4 cbr 750 ------- 1 2.0 6.0 46 86
+ 0.336 3 4 cbr 750 ------- 1 2.0 6.0 47 87
- 0.336 3 4 cbr 750 ------- 1 2.0 6.0 47 87
r 0.341 3 4 cbr 750 ------- 1 2.0 6.0 47 87
+ 0.343 3 4 cbr 750 ------- 1 2.0 6.0 48 88
- 0.343 3 4 cbr 750 ------- 1 2.0 6.0 48 88
r 0.348 3 4 cbr 750 ------- 1 2.0 6.0 48 88
+ 0.35 3 4 cbr 750 ------- 1 2.0 6.0 49 89
- 0.35 3 4 cbr 750 ------- 1 2.0 6.0 49 89
r 0.355 3 4 cbr 750 ------- 1 2.0 6.0 49 89
+ 0.357 3 4 cbr 750 ------- 1 2.0 6.0 50 90
- 0.357 3 4 cbr 750 ------- 1 2.0 6.0 50 90
r 0.362 3 4 cbr 750 ------- 1 2.0 6.0 50 90
+ 0.364 3 4 cbr 750 ------- 1 2.0 6.0 51 91
- 0.364 3 4 cbr 750 ------- 1 2.0 6.0 51 91
r 0.369 3 4 cbr 750 ------- 1 2.0 6.0 51 91
+ 0.371 3 4 cbr 750 ------- 1 2.0 6.0 52 92
- 0.371 3 4 cbr 750 ------- 1 2.0 6.0 52 92
r 0.376 3 4 cbr 750 ------- 1 2.0 6.0 52 92
+ 0.378 3 4 cbr 750 ------- 1 2.0 6.0 53 93
- 0.378 3 4 cbr 750 ------- 1 2.0 6.0 53 93
r 0.383 4 6 cbr 750 ------- 1 2.0 6.0 52 92
r 0.383 3 4 cbr 750 ------- 1 2.0 6.0 53 93
+ 0.383 4 6 cbr 750 ------- 1 2.0 6.0 53 93
- 0.383 4 6 cbr 750 ------- 1 2.0 6.0 53 93
+ 0.385 3 4 cbr 750 ------- 1 2.0 6.0 54 94
- 0.385 3 4 cbr 750 ------- 1 2.0 6.0 54 94
r 0.39 3 4 cbr 750 ------- 1 2.0 6.0 54 94
+ 0.392 3 4 cbr 750 ------- 1 2.0 6.0 55 95
- 0.392 3 4 cbr 750 ------- 1 2.0 6.0 55 95
r 0.397 3 4 cbr 750 ------- 1 2.0 6.0 55 95
+ 0.399 3 4 cbr 750 ------- 1 2.0 6.0 56 96
- 0.399 3 4 cbr 750 ------- 1 2.0 6.0 56 96
r 0.404 3 4 cbr 750 ------- 1 2.0 6.0 56 96
+ 0.406 3 4 cbr 750 ------- 1 2.0 6.0 57 97
- 0.406 3 4 cbr 750 ------- 1 2.0 6.0 57 97
r 0.411 3 4 cbr 750 ------- 1 2.0 6.0 57 97
+ 0.413 3 4 cbr 750 ------- 1 2.0 6.0 58 98
- 0.413 3 4 cbr 750 ------- 1 2.0 6.0 58 98
r 0.418 3 4 cbr 750 ------- 1 2.0 6.0 58 98
+ 0.42 3 4 cbr 750 ------- 1 2.0 6.0 59 99
- 0.42 3 4 cbr 750 ------- 1 2.0 6.0 59 99
r 0.425 3 4 cbr 750 ------- 1 2.0 6.0 59 99
+ 0.427 3 4 cbr 750 ------- 1 2.0 6.0 60 100
- 0.427 3 4 cbr 750 ------- 1 2.0 6.0 60 100
r 0.432 3 4 cbr 750 ------- 1 2.0 6.0 60 100
+ 0.434 3 4 cbr 750 ------- 1 2.0 6.0 61 101
- 0.434 3 4 cbr 750 ------- 1 2.0 6.0 61 101
r 0.439 3 4 cbr 750 ------- 1 2.0 6.0 61 101
+ 0.441 3 4 cbr 750 ------- 1 2.0 6.0 62 102
- 0.441 3 4 cbr 750 ------- 1 2.0 6.0 62 102
r 0.446 3 4 cbr 750 ------- 1 2.0 6.0 62 102
+ 0.448 3 4 cbr 750 ------- 1 2.0 6.0 63 103
- 0.448 3 4 cbr 750 ------- 1 2.0 6.0 63 103
r 0.453 4 6 cbr 750 ------- 1 2.0 6.0 62 102
r 0.453 3 4 cbr 750 ------- 1 2.0 6.0 63 103
+ 0.453 4 6 cbr 750 ------- 1 2.0 6.0 63 103
- 0.453 4 6 cbr 750 ------- 1 2.0 6.0 63 103
+ 0.455 3 4 cbr 750 ------- 1 2.0 6.0 64 104
- 0.455 3 4 cbr 750 ------- 1 2.0 6.0 64 104
r 0.46 3 4 cbr 750 ------- 1 2.0 6.0 64 104
+ 0.462 3 4 cbr 750 ------- 1 2.0 6.0 65 105
- 0.462 3 4 cbr 750 ------- 1 2.0 6.0 65 105
r 0.467 3 4 cbr 750 ------- 1 2.0 6.0 65 105
+ 0.469 3 4 cbr 750 ------- 1 2.0 6.0 66 106
- 0.469 3 4 cbr 750 ------- 1 2.0 6.0 66 106
r 0.474 3 4 cbr 750 ------- 1 2.0 6.0 66 106
+ 0.476 3 4 cbr 750 ------- 1 2.0 6.0 67 107
- 0.476 3 4 cbr 750 ------- 1 2.0 6.0 67 107
r 0.481 3 4 cbr 750 ------- 1 2.0 6.0 67 107
+ 0.483 3 4 cbr 750 ------- 1 2.0 6.0 68 108
- 0.483 3 4 cbr 750 ------- 1 2.0 6.0 68 108
r 0.488 3 4 cbr 750 ------- 1 2.0 6.0 68 108
+ 0.49 3 4 cbr 750 ------- 1 2.0 6.0 69 109
- 0.49 3 4 cbr 750 ------- 1 2.0 6.0 69 109
r 0.495 3 4 cbr 750 ------- 1 2.0 6.0 69 109
+ 0.497 3 4 cbr 750 ------- 1 2.0 6.0 70 110
- 0.497 3 4 cbr 750 ------- 1 2.0 6.0 70 110
r 0.502 3 4 cbr 750 ------- 1 2.0 6.0 70 110
+ 0.504 3 4 cbr 750 ------- 1 2.0 6.0 71 111
- 0.504 3 4 cbr 750 ------- 1 2.0 6.0 71 111
r 0.509 3 4 cbr 750 ------- 1 2.0 6.0 71 111
+ 0.511 3 4 cbr 750 ------- 1 2.0 6.0 72 112
- 0.511 3 4 cbr 750 ------- 1 2.0 6.0 72 112
r 0.516 3 4 cbr 750 ------- 1 2.0 6.0 72 112
+ 0.518 3 4 cbr 750 ------- 1 2.0 6.0 73 113
- 0.518 3 4 cbr 750 ------- 1 2.0 6.0 73 113
r 0.523 4 6 cbr 750 ------- 1 2.0 6.0 72 112
r 0.523 3 4 cbr 750 ------- 1 2.0 6.0 73 113
+ 0.523 4 6 cbr 750 ------- 1 2.0 6.0 73 113
- 0.523 4 6 cbr 750 ------- 1 2.0 6.0 73 113
+ 0.525 3 4 cbr 750 ------- 1 2.0 6.0 74 114
- 0.525 3 4 cbr 750 ------- 1 2.0 6.0 74 114
r 0.53 4 6 cbr 750 ------- 1 2.0 6.0 73 113
r 0.53 3 4 cbr 750 ------- 1 2.0 6.0 74 114
+ 0.53 4 6 cbr 750 ------- 1 2.0 6.0 74 114
- 0.53 4 6 cbr 750 ------- 1 2.0 6.0 74 114
+ 0.532 3 4 cbr 750 ------- 1 2.0 6.0 75 115
- 0.532 3 4 cbr 750 ------- 1 2.0 6.0 75 115
r 0.537 3 4 cbr 750 ------- 1 2.0 6.0 75 115
+ 0.539 3 4 cbr 750 ------- 1 2.0 6.0 76 116
- 0.539 3 4 cbr 750 ------- 1 2.0 6.0 76 116
r 0.544 3 4 cbr 750 ------- 1 2.0 6.0 76 116
+ 0.546 3 4 cbr 750 ------- 1 2.0 6.0 77 117
- 0.546 3 4 cbr 750 ------- 1 2.0 6.0 77 117
r 0.551 3 4 cbr 750 ------- 1 2.0 6.0 77 117
+ 0.553 3 4 cbr 750 ------- 1 2.0 6.0 78 118
- 0.553 3 4 cbr 750 ------- 1 2.0 6.0 78 118
r 0.558 3 4 cbr 750 ------- 1 2.0 6.0 78 118
+ 0.56 3 4 cbr 750 ------- 1 2.0 6.0 79 119
- 0.56 3 4 cbr 750 ------- 1 2.0 6.0 79 119
r 0.565 3 4 cbr 750 ------- 1 2.0 6.0 79 119
+ 0.567 3 4 cbr 750 ------- 1 2.0 6.0 80 120
- 0.567 3 4 cbr 750 ------- 1 2.0 6.0 80 120
r 0.572 3 4 cbr 750 ------- 1 2.0 6.0 80 120
+ 0.574 3 4 cbr 750 ------- 1 2.0 6.0 81 121
- 0.574 3 4 cbr 750 ------- 1 2.0 6.0 81 121
r 0.579 3 4 cbr 750 ------- 1 2.0 6.0 81 121
+ 0.581 3 4 cbr 750 ------- 1 2.0 6.0 82 122
- 0.581 3 4 cbr 750 ------- 1 2.0 6.0 82 122
r 0.586 3 4 cbr 750 ------- 1 2.0 6.0 82 122
+ 0.588 3 4 cbr 750 ------- 1 2.0 6.0 83 123
- 0.588 3 4 cbr 750 ------- 1 2.0 6.0 83 123
r 0.593 4 6 cbr 750 ------- 1 2.0 6.0 82 122
r 0.593 3 4 cbr 750 ------- 1 2.0 6.0 83 123
+ 0.593 4 6 cbr 750 ------- 1 2.0 6.0 83 123
- 0.593 4 6 cbr 750 ------- 1 2.0 6.0 83 123
+ 0.595 3 4 cbr 750 ------- 1 2.0 6.0 84 124
- 0.595 3 4 cbr 750 ------- 1 2.0 6.0 84 124
r 0.6 3 4 cbr 750 ------- 1 2.0 6.0 84 124
+ 0.602 3 4 cbr 750 ------- 1 2.0 6.0 85 125
- 0.602 3 4 cbr 750 ------- 1 2.0 6.0 85 125
r 0.607 3 4 cbr 750 ------- 1 2.0 6.0 85 125
+ 0.609 3 4 cbr 750 ------- 1 2.0 6.0 86 126
- 0.609 3 4 cbr 750 ------- 1 2.0 6.0 86 126
r 0.614 3 4 cbr 750 ------- 1 2.0 6.0 86 126
+ 0.616 3 4 cbr 750 ------- 1 2.0 6.0 87 127
- 0.616 3 4 cbr 750 ------- 1 2.0 6.0 87 127
r 0.621 3 4 cbr 750 ------- 1 2.0 6.0 87 127
+ 0.623 3 4 cbr 750 ------- 1 2.0 6.0 88 128
- 0.623 3 4 cbr 750 ------- 1 2.0 6.0 88 128
r 0.628 3 4 cbr 750 ------- 1 2.0 6.0 88 128
+ 0.63 3 4 cbr 750 ------- 1 2.0 6.0 89 129
- 0.63 3 4 cbr 750 ------- 1 2.0 6.0 89 129
r 0.635 3 4 cbr 750 ------- 1 2.0 6.0 89 129
+ 0.637 3 4 cbr 750 ------- 1 2.0 6.0 90 130
- 0.637 3 4 cbr 750 ------- 1 2.0 6.0 90 130
r 0.642 3 4 cbr 750 ------- 1 2.0 6.0 90 130
+ 0.644 3 4 cbr 750 ------- 1 2.0 6.0 91 131
- 0.644 3 4 cbr 750 ------- 1 2.0 6.0 91 131
r 0.649 3 4 cbr 750 ------- 1 2.0 6.0 91 131
+ 0.651 3 4 cbr 750 ------- 1 2.0 6.0 92 132
- 0.651 3 4 cbr 750 ------- 1 2.0 6.0 92 132
r 0.656 3 4 cbr 750 ------- 1 2.0 6.0 92 132
+ 0.658 3 4 cbr 750 ------- 1 2.0 6.0 93 133
- 0.658 3 4 cbr 750 ------- 1 2.0 6.0 93 133
r 0.663 4 6 cbr 750 ------- 1 2.0 6.0 92 132
r 0.663 3 4 cbr 750 ------- 1 2.0 6.0 93 133
+ 0.663 4 6 cbr 750 ------- 1 2.0 6.0 93 133
- 0.663 4 6 cbr 750 ------- 1 2.0 6.0 93 133
+ 0.665 3 4 cbr 750 ------- 1 2.0 6.0 94 134
- 0.665 3 4 cbr 750 ------- 1 2.0 6.0 94 134
r 0.67 3 4 cbr 750 ------- 1 2.0 6.0 94 134
+ 0.672 3 4 cbr 750 ------- 1 2.0 6.0 95 135
- 0.672 3 4 cbr 750 ------- 1 2.0 6.0 95 135
r 0.677 3 4 cbr 750 ------- 1 2.0 6.0 95 135
+ 0.679 3 4 cbr 750 ------- 1 2.0 6.0 96 136
- 0.679 3 4 cbr 750 ------- 1 2.0 6.0 96 136
r 0.684 3 4 cbr 750 ------- 1 2.0 6.0 96 136
+ 0.686 3 4 cbr 750 ------- 1 2.0 6.0 97 137
- 0.686 3 4 cbr 750 ------- 1 2.0 6.0 97 137
r 0.691 3 4 cbr 750 ------- 1 2.0 6.0 97 137
+ 0.693 3 4 cbr 750 ------- 1 2.0 6.0 98 138
- 0.693 3 4 cbr 750 ------- 1 2.0 6.0 98 138
r 0.698 3 4 cbr 750 ------- 1 2.0 6.0 98 138
+ 0.7 3 4 cbr 750 ------- 1 2.0 6.0 99 139
- 0.7 3 4 cbr 750 ------- 1 2.0 6.0 99 139
r 0.705 3 4 cbr 750 ------- 1 2.0 6.0 99 139
+ 0.707 3 4 cbr 750 ------- 1 2.0 6.0 100 140
- 0.707 3 4 cbr 750 ------- 1 2.0 6.0 100 140
r 0.712 3 4 cbr 750 ------- 1 2.0 6.0 100 140
+ 0.714 3 4 cbr 750 ------- 1 2.0 6.0 101 141
- 0.714 3 4 cbr 750 ------- 1 2.0 6.0 101 141
r 0.719 3 4 cbr 750 ------- 1 2.0 6.0 101 141
+ 0.721 3 4 cbr 750 ------- 1 2.0 6.0 102 142
- 0.721 3 4 cbr 750 ------- 1 2.0 6.0 102 142
r 0.726 3 4 cbr 750 ------- 1 2.0 6.0 102 142
+ 0.728 3 4 cbr 750 ------- 1 2.0 6.0 103 143
- 0.728 3 4 cbr 750 ------- 1 2.0 6.0 103 143
r 0.733 4 6 cbr 750 ------- 1 2.0 6.0 102 142
r 0.733 3 4 cbr 750 ------- 1 2.0 6.0 103 143
+ 0.733 4 6 cbr 750 ------- 1 2.0 6.0 103 143
- 0.733 4 6 cbr 750 ------- 1 2.0 6.0 103 143
+ 0.735 3 4 cbr 750 ------- 1 2.0 6.0 104 144
- 0.735 3 4 cbr 750 ------- 1 2.0 6.0 104 144
r 0.74 3 4 cbr 750 ------- 1 2.0 6.0 104 144
+ 0.742 3 4 cbr 750 ------- 1 2.0 6.0 105 145
- 0.742 3 4 cbr 750 ------- 1 2.0 6.0 105 145
r 0.747 3 4 cbr 750 ------- 1 2.0 6.0 105 145
+ 0.749 3 4 cbr 750 ------- 1 2.0 6.0 106 146
- 0.749 3 4 cbr 750 ------- 1 2.0 6.0 106 146
r 0.754 3 4 cbr 750 ------- 1 2.0 6.0 106 146
+ 0.756 3 4 cbr 750 ------- 1 2.0 6.0 107 147
- 0.756 3 4 cbr 750 ------- 1 2.0 6.0 107 147
r 0.761 3 4 cbr 750 ------- 1 2.0 6.0 107 147
+ 0.763 3 4 cbr 750 ------- 1 2.0 6.0 108 148
- 0.763 3 4 cbr 750 ------- 1 2.0 6.0 108 148
r 0.768 3 4 cbr 750 ------- 1 2.0 6.0 108 148
+ 0.77 3 4 cbr 750 ------- 1 2.0 6.0 109 149
- 0.77 3 4 cbr 750 ------- 1 2.0 6.0 109 149
r 0.775 3 4 cbr 750 ------- 1 2.0 6.0 109 149
+ 0.777 3 4 cbr 750 ------- 1 2.0 6.0 110 150
- 0.777 3 4 cbr 750 ------- 1 2.0 6.0 110 150
r 0.782 3 4 cbr 750 ------- 1 2.0 6.0 110 150
+ 0.784 3 4 cbr 750 ------- 1 2.0 6.0 111 151
- 0.784 3 4 cbr 750 ------- 1 2.0 6.0 111 151
r 0.789 3 4 cbr 750 ------- 1 2.0 6.0 111 151
+ 0.791 3 4 cbr 750 ------- 1 2.0 6.0 112 152
- 0.791 3 4 cbr 750 ------- 1 2.0 6.0 112 152
r 0.796 3 4 cbr 750 ------- 1 2.0 6.0 112 152
+ 0.798 3 4 cbr 750 ------- 1 2.0 6.0 113 153
- 0.798 3 4 cbr 750 ------- 1 2.0 6.0 113 153
r 0.803 4 6 cbr 750 ------- 1 2.0 6.0 112 152
r 0.803 3 4 cbr 750 ------- 1 2.0 6.0 113 153
+ 0.803 4 6 cbr 750 ------- 1 2.0 6.0 113 153
- 0.803 4 6 cbr 750 ------- 1 2.0 6.0 113 153
+ 0.805 3 4 cbr 750 ------- 1 2.0 6.0 114 154
- 0.805 3 4 cbr 750 ------- 1 2.0 6.0 114 154
r 0.81 3 4 cbr 750 ------- 1 2.0 6.0 114 154
+ 0.812 3 4 cbr 750 ------- 1 2.0 6.0 115 155
- 0.812 3 4 cbr 750 ------- 1 2.0 6.0 115 155
r 0.817 3 4 cbr 750 ------- 1 2.0 6.0 115 155
+ 0.819 3 4 cbr 750 ------- 1 2.0 6.0 116 156
- 0.819 3 4 cbr 750 ------- 1 2.0 6.0 116 156
r 0.824 3 4 cbr 750 ------- 1 2.0 6.0 116 156
+ 0.826 3 4 cbr 750 ------- 1 2.0 6.0 117 157
- 0.826 3 4 cbr 750 ------- 1 2.0 6.0 117 157
r 0.831 3 4 cbr 750 ------- 1 2.0 6.0 117 157
+ 0.833 3 4 cbr 750 ------- 1 2.0 6.0 118 158
- 0.833 3 4 cbr 750 ------- 1 2.0 6.0 118 158
r 0.838 3 4 cbr 750 ------- 1 2.0 6.0 118 158
+ 0.84 3 4 cbr 750 ------- 1 2.0 6.0 119 159
- 0.84 3 4 cbr 750 ------- 1 2.0 6.0 119 159
r 0.845 3 4 cbr 750 ------- 1 2.0 6.0 119 159
+ 0.847 3 4 cbr 750 ------- 1 2.0 6.0 120 160
- 0.847 3 4 cbr 750 ------- 1 2.0 6.0 120 160
r 0.852 3 4 cbr 750 ------- 1 2.0 6.0 120 160
+ 0.854 3 4 cbr 750 ------- 1 2.0 6.0 121 161
- 0.854 3 4 cbr 750 ------- 1 2.0 6.0 121 161
r 0.859 3 4 cbr 750 ------- 1 2.0 6.0 121 161
+ 0.861 3 4 cbr 750 ------- 1 2.0 6.0 122 162
- 0.861 3 4 cbr 750 ------- 1 2.0 6.0 122 162
r 0.866 3 4 cbr 750 ------- 1 2.0 6.0 122 162
+ 0.868 3 4 cbr 750 ------- 1 2.0 6.0 123 163
- 0.868 3 4 cbr 750 ------- 1 2.0 6.0 123 163
r 0.873 4 6 cbr 750 ------- 1 2.0 6.0 122 162
r 0.873 3 4 cbr 750 ------- 1 2.0 6.0 123 163
+ 0.873 4 6 cbr 750 ------- 1 2.0 6.0 123 163
- 0.873 4 6 cbr 750 ------- 1 2.0 6.0 123 163
+ 0.875 3 4 cbr 750 ------- 1 2.0 6.0 124 164
- 0.875 3 4 cbr 750 ------- 1 2.0 6.0 124 164
r 0.88 3 4 cbr 750 ------- 1 2.0 6.0 124 164
+ 0.882 3 4 cbr 750 ------- 1 2.0 6.0 125 165
- 0.882 3 4 cbr 750 ------- 1 2.0 6.0 125 165
r 0.887 3 4 cbr 750 ------- 1 2.0 6.0 125 165
+ 0.889 3 4 cbr 750 ------- 1 2.0 6.0 126 166
- 0.889 3 4 cbr 750 ------- 1 2.0 6.0 126 166
r 0.894 3 4 cbr 750 ------- 1 2.0 6.0 126 166
+ 0.896 3 4 cbr 750 ------- 1 2.0 6.0 127 167
- 0.896 3 4 cbr 750 ------- 1 2.0 6.0 127 167
r 0.901 3 4 cbr 750 ------- 1 2.0 6.0 127 167
+ 0.903 3 4 cbr 750 ------- 1 2.0 6.0 128 168
- 0.903 3 4 cbr 750 ------- 1 2.0 6.0 128 168
r 0.908 3 4 cbr 750 ------- 1 2.0 6.0 128 168
+ 0.91 3 4 cbr 750 ------- 1 2.0 6.0 129 169
- 0.91 3 4 cbr 750 ------- 1 2.0 6.0 129 169
r 0.915 3 4 cbr 750 ------- 1 2.0 6.0 129 169
+ 0.917 3 4 cbr 750 ------- 1 2.0 6.0 130 170
- 0.917 3 4 cbr 750 ------- 1 2.0 6.0 130 170
r 0.922 3 4 cbr 750 ------- 1 2.0 6.0 130 170
+ 0.924 3 4 cbr 750 ------- 1 2.0 6.0 131 171
- 0.924 3 4 cbr 750 ------- 1 2.0 6.0 131 171
r 0.929 3 4 cbr 750 ------- 1 2.0 6.0 131 171
+ 0.931 3 4 cbr 750 ------- 1 2.0 6.0 132 172
- 0.931 3 4 cbr 750 ------- 1 2.0 6.0 132 172
r 0.936 3 4 cbr 750 ------- 1 2.0 6.0 132 172
+ 0.938 3 4 cbr 750 ------- 1 2.0 6.0 133 173
- 0.938 3 4 cbr 750 ------- 1 2.0 6.0 133 173
r 0.943 4 6 cbr 750 ------- 1 2.0 6.0 132 172
r 0.943 3 4 cbr 750 ------- 1 2.0 6.0 133 173
+ 0.943 4 6 cbr 750 ------- 1 2.0 6.0 133 173
- 0.943 4 6 cbr 750 ------- 1 2.0 6.0 133 173
+ 0.945 3 4 cbr 750 ------- 1 2.0 6.0 134 174
- 0.945 3 4 cbr 750 ------- 1 2.0 6.0 134 174
r 0.95 3 4 cbr 750 ------- 1 2.0 6.0 134 174
+ 0.952 3 4 cbr 750 ------- 1 2.0 6.0 135 175
- 0.952 3 4 cbr 750 ------- 1 2.0 6.0 135 175
r 0.957 3 4 cbr 750 ------- 1 2.0 6.0 135 175
+ 0.959 3 4 cbr 750 ------- 1 2.0 6.0 136 176
- 0.959 3 4 cbr 750 ------- 1 2.0 6.0 136 176
r 0.964 3 4 cbr 750 ------- 1 2.0 6.0 136 176
+ 0.966 3 4 cbr 750 ------- 1 2.0 6.0 137 177
- 0.966 3 4 cbr 750 ------- 1 2.0 6.0 137 177
r 0.971 3 4 cbr 750 ------- 1 2.0 6.0 137 177
+ 0.973 3 4 cbr 750 ------- 1 2.0 6.0 138 178
- 0.973 3 4 cbr 750 ------- 1 2.0 6.0 138 178
r 0.978 3 4 cbr 750 ------- 1 2.0 6.0 138 178
+ 0.98 3 4 cbr 750 ------- 1 2.0 6.0 139 179
- 0.98 3 4 cbr 750 ------- 1 2.0 6.0 139 179
r 0.985 3 4 cbr 750 ------- 1 2.0 6.0 139 179
+ 0.987 3 4 cbr 750 ------- 1 2.0 6.0 140 180
- 0.987 3 4 cbr 750 ------- 1 2.0 6.0 140 180
r 0.992 3 4 cbr 750 ------- 1 2.0 6.0 140 180
+ 0.994 3 4 cbr 750 ------- 1 2.0 6.0 141 181
- 0.994 3 4 cbr 750 ------- 1 2.0 6.0 141 181
r 0.999 3 4 cbr 750 ------- 1 2.0 6.0 141 181
+ 1.001 3 4 cbr 750 ------- 1 2.0 6.0 142 182
- 1.001 3 4 cbr 750 ------- 1 2.0 6.0 142 182
r 1.006 3 4 cbr 750 ------- 1 2.0 6.0 142 182
r 1.013 4 6 cbr 750 ------- 1 2.0 6.0 142 182
