V -t * -v 1.0a5 -a 0
W -t * -x 500 -y 500
A -t * -n 1 -p 0 -o 0x7fffffff -c 30 -a 1
A -t * -h 1 -m 1073741823 -s 0
+ -t 0.032821055 -s 1 -d -1 -p message -e 32 -c 2 -a 0 -i 0 -k RTR 
- -t 0.032821055 -s 1 -d -1 -p message -e 32 -c 2 -a 0 -i 0 -k RTR
h -t 0.032821055 -s 1 -d -1 -p message -e 32 -c 2 -a 0 -i 0 -k RTR
+ -t 0.178591360 -s 2 -d -1 -p message -e 32 -c 2 -a 0 -i 1 -k RTR 
- -t 0.178591360 -s 2 -d -1 -p message -e 32 -c 2 -a 0 -i 1 -k RTR
h -t 0.178591360 -s 2 -d -1 -p message -e 32 -c 2 -a 0 -i 1 -k RTR
+ -t 1.113402886 -s 0 -d -1 -p message -e 32 -c 2 -a 0 -i 2 -k RTR 
- -t 1.113402886 -s 0 -d -1 -p message -e 32 -c 2 -a 0 -i 2 -k RTR
h -t 1.113402886 -s 0 -d -1 -p message -e 32 -c 2 -a 0 -i 2 -k RTR
n -t 10.000000 -s 0 -x 5.000000 -y 5.000000 -U 0.707107 -V 0.707107 -T 21.213203
+ -t 10.000000000 -s 0 -d -1 -p tcp -e 40 -c 2 -a 0 -i 3 -k AGT 
- -t 10.000000000 -s 0 -d -1 -p tcp -e 40 -c 2 -a 0 -i 3 -k AGT
h -t 10.000000000 -s 0 -d -1 -p tcp -e 40 -c 2 -a 0 -i 3 -k AGT
+ -t 12.530838300 -s 0 -d -1 -p message -e 32 -c 2 -a 0 -i 4 -k RTR 
- -t 12.530838300 -s 0 -d -1 -p message -e 32 -c 2 -a 0 -i 4 -k RTR
h -t 12.530838300 -s 0 -d -1 -p message -e 32 -c 2 -a 0 -i 4 -k RTR
+ -t 13.000000000 -s 0 -d -1 -p tcp -e 40 -c 2 -a 0 -i 5 -k AGT 
- -t 13.000000000 -s 0 -d -1 -p tcp -e 40 -c 2 -a 0 -i 5 -k AGT
h -t 13.000000000 -s 0 -d -1 -p tcp -e 40 -c 2 -a 0 -i 5 -k AGT
+ -t 13.830059915 -s 2 -d -1 -p message -e 32 -c 2 -a 0 -i 6 -k RTR 
- -t 13.830059915 -s 2 -d -1 -p message -e 32 -c 2 -a 0 -i 6 -k RTR
h -t 13.830059915 -s 2 -d -1 -p message -e 32 -c 2 -a 0 -i 6 -k RTR
+ -t 14.280428760 -s 1 -d -1 -p message -e 32 -c 2 -a 0 -i 7 -k RTR 
- -t 14.280428760 -s 1 -d -1 -p message -e 32 -c 2 -a 0 -i 7 -k RTR
h -t 14.280428760 -s 1 -d -1 -p message -e 32 -c 2 -a 0 -i 7 -k RTR
+ -t 19.000000000 -s 0 -d -1 -p tcp -e 40 -c 2 -a 0 -i 8 -k AGT 
- -t 19.000000000 -s 0 -d -1 -p tcp -e 40 -c 2 -a 0 -i 8 -k AGT
h -t 19.000000000 -s 0 -d -1 -p tcp -e 40 -c 2 -a 0 -i 8 -k AGT
n -t 20.000000 -s 1 -x 400.000000 -y 400.000000 -U -3.485392 -V -3.584975 -T 100.419122
+ -t 25.369352037 -s 0 -d -1 -p message -e 32 -c 2 -a 0 -i 9 -k RTR 
- -t 25.369352037 -s 0 -d -1 -p message -e 32 -c 2 -a 0 -i 9 -k RTR
h -t 25.369352037 -s 0 -d -1 -p message -e 32 -c 2 -a 0 -i 9 -k RTR
+ -t 26.386541965 -s 2 -d -1 -p message -e 32 -c 2 -a 0 -i 10 -k RTR 
- -t 26.386541965 -s 2 -d -1 -p message -e 32 -c 2 -a 0 -i 10 -k RTR
h -t 26.386541965 -s 2 -d -1 -p message -e 32 -c 2 -a 0 -i 10 -k RTR
+ -t 27.274269018 -s 1 -d -1 -p message -e 32 -c 2 -a 0 -i 11 -k RTR 
- -t 27.274269018 -s 1 -d -1 -p message -e 32 -c 2 -a 0 -i 11 -k RTR
h -t 27.274269018 -s 1 -d -1 -p message -e 32 -c 2 -a 0 -i 11 -k RTR
n -t 30.000000 -s 2 -x 100.000000 -y 450.000000 -U 17.888544 -V -8.944272 -T 5.590170
+ -t 31.000000000 -s 0 -d -1 -p tcp -e 40 -c 2 -a 0 -i 12 -k AGT 
- -t 31.000000000 -s 0 -d -1 -p tcp -e 40 -c 2 -a 0 -i 12 -k AGT
h -t 31.000000000 -s 0 -d -1 -p tcp -e 40 -c 2 -a 0 -i 12 -k AGT
+ -t 37.434764407 -s 0 -d -1 -p message -e 32 -c 2 -a 0 -i 13 -k RTR 
- -t 37.434764407 -s 0 -d -1 -p message -e 32 -c 2 -a 0 -i 13 -k RTR
h -t 37.434764407 -s 0 -d -1 -p message -e 32 -c 2 -a 0 -i 13 -k RTR
+ -t 40.039063347 -s 1 -d -1 -p message -e 32 -c 2 -a 0 -i 14 -k RTR 
- -t 40.039063347 -s 1 -d -1 -p message -e 32 -c 2 -a 0 -i 14 -k RTR
h -t 40.039063347 -s 1 -d -1 -p message -e 32 -c 2 -a 0 -i 14 -k RTR
r -t 40.040383843 -s 2 -d -1 -p message -e 32 -c 2 -a 0 -i 14 -k RTR
+ -t 40.494824313 -s 2 -d -1 -p message -e 32 -c 2 -a 0 -i 15 -k RTR 
- -t 40.494824313 -s 2 -d -1 -p message -e 32 -c 2 -a 0 -i 15 -k RTR
h -t 40.494824313 -s 2 -d -1 -p message -e 32 -c 2 -a 0 -i 15 -k RTR
r -t 40.496124806 -s 1 -d -1 -p message -e 32 -c 2 -a 0 -i 15 -k RTR
+ -t 52.026622644 -s 0 -d -1 -p message -e 32 -c 2 -a 0 -i 16 -k RTR 
- -t 52.026622644 -s 0 -d -1 -p message -e 32 -c 2 -a 0 -i 16 -k RTR
h -t 52.026622644 -s 0 -d -1 -p message -e 32 -c 2 -a 0 -i 16 -k RTR
+ -t 52.040659418 -s 2 -d -1 -p message -e 32 -c 2 -a 0 -i 17 -k RTR 
- -t 52.040659418 -s 2 -d -1 -p message -e 32 -c 2 -a 0 -i 17 -k RTR
h -t 52.040659418 -s 2 -d -1 -p message -e 32 -c 2 -a 0 -i 17 -k RTR
r -t 52.041779901 -s 1 -d -1 -p message -e 32 -c 2 -a 0 -i 17 -k RTR
+ -t 52.503974677 -s 1 -d -1 -p message -e 32 -c 2 -a 0 -i 18 -k RTR 
- -t 52.503974677 -s 1 -d -1 -p message -e 32 -c 2 -a 0 -i 18 -k RTR
h -t 52.503974677 -s 1 -d -1 -p message -e 32 -c 2 -a 0 -i 18 -k RTR
r -t 52.505095161 -s 2 -d -1 -p message -e 32 -c 2 -a 0 -i 18 -k RTR
+ -t 52.703931936 -s 2 -d -1 -p message -e 44 -c 2 -a 0 -i 19 -k RTR 
- -t 52.703931936 -s 2 -d -1 -p message -e 44 -c 2 -a 0 -i 19 -k RTR
h -t 52.703931936 -s 2 -d -1 -p message -e 44 -c 2 -a 0 -i 19 -k RTR
r -t 52.705088421 -s 1 -d -1 -p message -e 44 -c 2 -a 0 -i 19 -k RTR
+ -t 53.521221537 -s 1 -d -1 -p message -e 32 -c 2 -a 0 -i 20 -k RTR 
- -t 53.521221537 -s 1 -d -1 -p message -e 32 -c 2 -a 0 -i 20 -k RTR
h -t 53.521221537 -s 1 -d -1 -p message -e 32 -c 2 -a 0 -i 20 -k RTR
r -t 53.522502024 -s 2 -d -1 -p message -e 32 -c 2 -a 0 -i 20 -k RTR
+ -t 55.000000000 -s 0 -d -1 -p tcp -e 40 -c 2 -a 0 -i 21 -k AGT 
- -t 55.000000000 -s 0 -d -1 -p tcp -e 40 -c 2 -a 0 -i 21 -k AGT
h -t 55.000000000 -s 0 -d -1 -p tcp -e 40 -c 2 -a 0 -i 21 -k AGT
+ -t 64.255025625 -s 0 -d -1 -p message -e 32 -c 2 -a 0 -i 22 -k RTR 
- -t 64.255025625 -s 0 -d -1 -p message -e 32 -c 2 -a 0 -i 22 -k RTR
h -t 64.255025625 -s 0 -d -1 -p message -e 32 -c 2 -a 0 -i 22 -k RTR
+ -t 66.566023329 -s 2 -d -1 -p message -e 44 -c 2 -a 0 -i 23 -k RTR 
- -t 66.566023329 -s 2 -d -1 -p message -e 44 -c 2 -a 0 -i 23 -k RTR
h -t 66.566023329 -s 2 -d -1 -p message -e 44 -c 2 -a 0 -i 23 -k RTR
r -t 66.567279899 -s 1 -d -1 -p message -e 44 -c 2 -a 0 -i 23 -k RTR
+ -t 66.620125481 -s 1 -d -1 -p message -e 32 -c 2 -a 0 -i 24 -k RTR 
- -t 66.620125481 -s 1 -d -1 -p message -e 32 -c 2 -a 0 -i 24 -k RTR
h -t 66.620125481 -s 1 -d -1 -p message -e 32 -c 2 -a 0 -i 24 -k RTR
r -t 66.621526052 -s 2 -d -1 -p message -e 32 -c 2 -a 0 -i 24 -k RTR
+ -t 78.261872448 -s 0 -d -1 -p message -e 32 -c 2 -a 0 -i 25 -k RTR 
- -t 78.261872448 -s 0 -d -1 -p message -e 32 -c 2 -a 0 -i 25 -k RTR
h -t 78.261872448 -s 0 -d -1 -p message -e 32 -c 2 -a 0 -i 25 -k RTR
r -t 78.263233269 -s 1 -d -1 -p message -e 32 -c 2 -a 0 -i 25 -k RTR
+ -t 80.625166225 -s 1 -d -1 -p message -e 44 -c 2 -a 0 -i 26 -k RTR 
- -t 80.625166225 -s 1 -d -1 -p message -e 44 -c 2 -a 0 -i 26 -k RTR
h -t 80.625166225 -s 1 -d -1 -p message -e 44 -c 2 -a 0 -i 26 -k RTR
r -t 80.626422951 -s 2 -d -1 -p message -e 44 -c 2 -a 0 -i 26 -k RTR
r -t 80.626423006 -s 0 -d -1 -p message -e 44 -c 2 -a 0 -i 26 -k RTR
+ -t 80.626423006 -s 0 -d 1 -p tcp -e 80 -c 2 -a 0 -i 3 -k RTR 
- -t 80.626423006 -s 0 -d 1 -p tcp -e 80 -c 2 -a 0 -i 3 -k RTR
h -t 80.626423006 -s 0 -d 1 -p tcp -e 80 -c 2 -a 0 -i 3 -k RTR
+ -t 80.626423006 -s 0 -d 1 -p tcp -e 80 -c 2 -a 0 -i 5 -k RTR 
- -t 80.626423006 -s 0 -d 1 -p tcp -e 80 -c 2 -a 0 -i 5 -k RTR
h -t 80.626423006 -s 0 -d 1 -p tcp -e 80 -c 2 -a 0 -i 5 -k RTR
d -t 80.626423006 -s 0 -d 1 -p tcp -e 80 -c 2 -a 0 -i 3 -k IFQ
+ -t 80.626423006 -s 0 -d 1 -p tcp -e 80 -c 2 -a 0 -i 8 -k RTR 
- -t 80.626423006 -s 0 -d 1 -p tcp -e 80 -c 2 -a 0 -i 8 -k RTR
h -t 80.626423006 -s 0 -d 1 -p tcp -e 80 -c 2 -a 0 -i 8 -k RTR
d -t 80.626423006 -s 0 -d 1 -p tcp -e 80 -c 2 -a 0 -i 5 -k IFQ
+ -t 80.626423006 -s 0 -d 1 -p tcp -e 80 -c 2 -a 0 -i 12 -k RTR 
- -t 80.626423006 -s 0 -d 1 -p tcp -e 80 -c 2 -a 0 -i 12 -k RTR
h -t 80.626423006 -s 0 -d 1 -p tcp -e 80 -c 2 -a 0 -i 12 -k RTR
d -t 80.626423006 -s 0 -d 1 -p tcp -e 80 -c 2 -a 0 -i 8 -k RTR
d -t 80.626423006 -s 0 -d 1 -p tcp -e 80 -c 2 -a 0 -i 12 -k RTR
+ -t 80.626423006 -s 0 -d 1 -p tcp -e 80 -c 2 -a 0 -i 21 -k RTR 
- -t 80.626423006 -s 0 -d 1 -p tcp -e 80 -c 2 -a 0 -i 21 -k RTR
h -t 80.626423006 -s 0 -d 1 -p tcp -e 80 -c 2 -a 0 -i 21 -k RTR
r -t 80.637955722 -s 1 -d 1 -p tcp -e 80 -c 2 -a 0 -i 21 -k AGT
+ -t 80.637955722 -s 1 -d -1 -p ack -e 40 -c 2 -a 0 -i 27 -k AGT 
- -t 80.637955722 -s 1 -d -1 -p ack -e 40 -c 2 -a 0 -i 27 -k AGT
h -t 80.637955722 -s 1 -d -1 -p ack -e 40 -c 2 -a 0 -i 27 -k AGT
+ -t 80.637955722 -s 1 -d 0 -p ack -e 60 -c 2 -a 0 -i 27 -k RTR 
- -t 80.637955722 -s 1 -d 0 -p ack -e 60 -c 2 -a 0 -i 27 -k RTR
h -t 80.637955722 -s 1 -d 0 -p ack -e 60 -c 2 -a 0 -i 27 -k RTR
r -t 80.641913188 -s 0 -d 0 -p ack -e 60 -c 2 -a 0 -i 27 -k AGT
+ -t 80.641913188 -s 0 -d -1 -p tcp -e 1040 -c 2 -a 0 -i 28 -k AGT 
- -t 80.641913188 -s 0 -d -1 -p tcp -e 1040 -c 2 -a 0 -i 28 -k AGT
h -t 80.641913188 -s 0 -d -1 -p tcp -e 1040 -c 2 -a 0 -i 28 -k AGT
+ -t 80.641913188 -s 0 -d 1 -p tcp -e 1060 -c 2 -a 0 -i 28 -k RTR 
- -t 80.641913188 -s 0 -d 1 -p tcp -e 1060 -c 2 -a 0 -i 28 -k RTR
h -t 80.641913188 -s 0 -d 1 -p tcp -e 1060 -c 2 -a 0 -i 28 -k RTR
r -t 80.652259531 -s 1 -d 1 -p tcp -e 1060 -c 2 -a 0 -i 28 -k AGT
+ -t 80.652259531 -s 1 -d -1 -p ack -e 40 -c 2 -a 0 -i 29 -k AGT 
- -t 80.652259531 -s 1 -d -1 -p ack -e 40 -c 2 -a 0 -i 29 -k AGT
h -t 80.652259531 -s 1 -d -1 -p ack -e 40 -c 2 -a 0 -i 29 -k AGT
+ -t 80.652259531 -s 1 -d 0 -p ack -e 60 -c 2 -a 0 -i 29 -k RTR 
- -t 80.652259531 -s 1 -d 0 -p ack -e 60 -c 2 -a 0 -i 29 -k RTR
h -t 80.652259531 -s 1 -d 0 -p ack -e 60 -c 2 -a 0 -i 29 -k RTR
r -t 80.654665873 -s 0 -d 0 -p ack -e 60 -c 2 -a 0 -i 29 -k AGT
+ -t 80.654665873 -s 0 -d -1 -p tcp -e 1040 -c 2 -a 0 -i 30 -k AGT 
- -t 80.654665873 -s 0 -d -1 -p tcp -e 1040 -c 2 -a 0 -i 30 -k AGT
h -t 80.654665873 -s 0 -d -1 -p tcp -e 1040 -c 2 -a 0 -i 30 -k AGT
+ -t 80.654665873 -s 0 -d 1 -p tcp -e 1060 -c 2 -a 0 -i 30 -k RTR 
- -t 80.654665873 -s 0 -d 1 -p tcp -e 1060 -c 2 -a 0 -i 30 -k RTR
h -t 80.654665873 -s 0 -d 1 -p tcp -e 1060 -c 2 -a 0 -i 30 -k RTR
+ -t 80.654665873 -s 0 -d -1 -p tcp -e 1040 -c 2 -a 0 -i 31 -k AGT 
- -t 80.654665873 -s 0 -d -1 -p tcp -e 1040 -c 2 -a 0 -i 31 -k AGT
h -t 80.654665873 -s 0 -d -1 -p tcp -e 1040 -c 2 -a 0 -i 31 -k AGT
+ -t 80.654665873 -s 0 -d 1 -p tcp -e 1060 -c 2 -a 0 -i 31 -k RTR 
- -t 80.654665873 -s 0 -d 1 -p tcp -e 1060 -c 2 -a 0 -i 31 -k RTR
h -t 80.654665873 -s 0 -d 1 -p tcp -e 1060 -c 2 -a 0 -i 31 -k RTR
r -t 80.664752215 -s 1 -d 1 -p tcp -e 1060 -c 2 -a 0 -i 30 -k AGT
+ -t 80.664752215 -s 1 -d -1 -p ack -e 40 -c 2 -a 0 -i 32 -k AGT 
- -t 80.664752215 -s 1 -d -1 -p ack -e 40 -c 2 -a 0 -i 32 -k AGT
h -t 80.664752215 -s 1 -d -1 -p ack -e 40 -c 2 -a 0 -i 32 -k AGT
+ -t 80.664752215 -s 1 -d 0 -p ack -e 60 -c 2 -a 0 -i 32 -k RTR 
- -t 80.664752215 -s 1 -d 0 -p ack -e 60 -c 2 -a 0 -i 32 -k RTR
h -t 80.664752215 -s 1 -d 0 -p ack -e 60 -c 2 -a 0 -i 32 -k RTR
r -t 80.674899336 -s 1 -d 1 -p tcp -e 1060 -c 2 -a 0 -i 31 -k AGT
+ -t 80.674899336 -s 1 -d -1 -p ack -e 40 -c 2 -a 0 -i 33 -k AGT 
- -t 80.674899336 -s 1 -d -1 -p ack -e 40 -c 2 -a 0 -i 33 -k AGT
h -t 80.674899336 -s 1 -d -1 -p ack -e 40 -c 2 -a 0 -i 33 -k AGT
+ -t 80.674899336 -s 1 -d 0 -p ack -e 60 -c 2 -a 0 -i 33 -k RTR 
- -t 80.674899336 -s 1 -d 0 -p ack -e 60 -c 2 -a 0 -i 33 -k RTR
h -t 80.674899336 -s 1 -d 0 -p ack -e 60 -c 2 -a 0 -i 33 -k RTR
r -t 80.676965677 -s 0 -d 0 -p ack -e 60 -c 2 -a 0 -i 32 -k AGT
+ -t 80.676965677 -s 0 -d -1 -p tcp -e 1040 -c 2 -a 0 -i 34 -k AGT 
- -t 80.676965677 -s 0 -d -1 -p tcp -e 1040 -c 2 -a 0 -i 34 -k AGT
h -t 80.676965677 -s 0 -d -1 -p tcp -e 1040 -c 2 -a 0 -i 34 -k AGT
+ -t 80.676965677 -s 0 -d 1 -p tcp -e 1060 -c 2 -a 0 -i 34 -k RTR 
- -t 80.676965677 -s 0 -d 1 -p tcp -e 1060 -c 2 -a 0 -i 34 -k RTR
h -t 80.676965677 -s 0 -d 1 -p tcp -e 1060 -c 2 -a 0 -i 34 -k RTR
r -t 80.679052798 -s 0 -d 0 -p ack -e 60 -c 2 -a 0 -i 33 -k AGT
+ -t 80.679052798 -s 0 -d -1 -p tcp -e 1040 -c 2 -a 0 -i 35 -k AGT 
- -t 80.679052798 -s 0 -d -1 -p tcp -e 1040 -c 2 -a 0 -i 35 -k AGT
h -t 80.679052798 -s 0 -d -1 -p tcp -e 1040 -c 2 -a 0 -i 35 -k AGT
+ -t 80.679052798 -s 0 -d 1 -p tcp -e 1060 -c 2 -a 0 -i 35 -k RTR 
- -t 80.679052798 -s 0 -d 1 -p tcp -e 1060 -c 2 -a 0 -i 35 -k RTR
h -t 80.679052798 -s 0 -d 1 -p tcp -e 1060 -c 2 -a 0 -i 35 -k RTR
r -t 80.689199139 -s 1 -d 1 -p tcp -e 1060 -c 2 -a 0 -i 34 -k AGT
+ -t 80.689199139 -s 1 -d -1 -p ack -e 40 -c 2 -a 0 -i 36 -k AGT 
- -t 80.689199139 -s 1 -d -1 -p ack -e 40 -c 2 -a 0 -i 36 -k AGT
h -t 80.689199139 -s 1 -d -1 -p ack -e 40 -c 2 -a 0 -i 36 -k AGT
+ -t 80.689199139 -s 1 -d 0 -p ack -e 60 -c 2 -a 0 -i 36 -k RTR 
- -t 80.689199139 -s 1 -d 0 -p ack -e 60 -c 2 -a 0 -i 36 -k RTR
h -t 80.689199139 -s 1 -d 0 -p ack -e 60 -c 2 -a 0 -i 36 -k RTR
r -t 80.691245479 -s 0 -d 0 -p ack -e 60 -c 2 -a 0 -i 36 -k AGT
+ -t 80.691245479 -s 0 -d -1 -p tcp -e 1040 -c 2 -a 0 -i 37 -k AGT 
- -t 80.691245479 -s 0 -d -1 -p tcp -e 1040 -c 2 -a 0 -i 37 -k AGT
h -t 80.691245479 -s 0 -d -1 -p tcp -e 1040 -c 2 -a 0 -i 37 -k AGT
+ -t 80.691245479 -s 0 -d 1 -p tcp -e 1060 -c 2 -a 0 -i 37 -k RTR 
- -t 80.691245479 -s 0 -d 1 -p tcp -e 1060 -c 2 -a 0 -i 37 -k RTR
h -t 80.691245479 -s 0 -d 1 -p tcp -e 1060 -c 2 -a 0 -i 37 -k RTR
+ -t 80.691245479 -s 0 -d -1 -p tcp -e 1040 -c 2 -a 0 -i 38 -k AGT 
- -t 80.691245479 -s 0 -d -1 -p tcp -e 1040 -c 2 -a 0 -i 38 -k AGT
h -t 80.691245479 -s 0 -d -1 -p tcp -e 1040 -c 2 -a 0 -i 38 -k AGT
+ -t 80.691245479 -s 0 -d 1 -p tcp -e 1060 -c 2 -a 0 -i 38 -k RTR 
- -t 80.691245479 -s 0 -d 1 -p tcp -e 1060 -c 2 -a 0 -i 38 -k RTR
h -t 80.691245479 -s 0 -d 1 -p tcp -e 1060 -c 2 -a 0 -i 38 -k RTR
r -t 80.701711819 -s 1 -d 1 -p tcp -e 1060 -c 2 -a 0 -i 35 -k AGT
+ -t 80.701711819 -s 1 -d -1 -p ack -e 40 -c 2 -a 0 -i 39 -k AGT 
- -t 80.701711819 -s 1 -d -1 -p ack -e 40 -c 2 -a 0 -i 39 -k AGT
h -t 80.701711819 -s 1 -d -1 -p ack -e 40 -c 2 -a 0 -i 39 -k AGT
+ -t 80.701711819 -s 1 -d 0 -p ack -e 60 -c 2 -a 0 -i 39 -k RTR 
- -t 80.701711819 -s 1 -d 0 -p ack -e 60 -c 2 -a 0 -i 39 -k RTR
h -t 80.701711819 -s 1 -d 0 -p ack -e 60 -c 2 -a 0 -i 39 -k RTR
r -t 80.703838159 -s 0 -d 0 -p ack -e 60 -c 2 -a 0 -i 39 -k AGT
+ -t 80.703838159 -s 0 -d -1 -p tcp -e 1040 -c 2 -a 0 -i 40 -k AGT 
- -t 80.703838159 -s 0 -d -1 -p tcp -e 1040 -c 2 -a 0 -i 40 -k AGT
h -t 80.703838159 -s 0 -d -1 -p tcp -e 1040 -c 2 -a 0 -i 40 -k AGT
+ -t 80.703838159 -s 0 -d 1 -p tcp -e 1060 -c 2 -a 0 -i 40 -k RTR 
- -t 80.703838159 -s 0 -d 1 -p tcp -e 1060 -c 2 -a 0 -i 40 -k RTR
h -t 80.703838159 -s 0 -d 1 -p tcp -e 1060 -c 2 -a 0 -i 40 -k RTR
r -t 80.714124499 -s 1 -d 1 -p tcp -e 1060 -c 2 -a 0 -i 37 -k AGT
+ -t 80.714124499 -s 1 -d -1 -p ack -e 40 -c 2 -a 0 -i 41 -k AGT 
- -t 80.714124499 -s 1 -d -1 -p ack -e 40 -c 2 -a 0 -i 41 -k AGT
h -t 80.714124499 -s 1 -d -1 -p ack -e 40 -c 2 -a 0 -i 41 -k AGT
+ -t 80.714124499 -s 1 -d 0 -p ack -e 60 -c 2 -a 0 -i 41 -k RTR 
- -t 80.714124499 -s 1 -d 0 -p ack -e 60 -c 2 -a 0 -i 41 -k RTR
h -t 80.714124499 -s 1 -d 0 -p ack -e 60 -c 2 -a 0 -i 41 -k RTR
r -t 80.716130837 -s 0 -d 0 -p ack -e 60 -c 2 -a 0 -i 41 -k AGT
+ -t 80.716130837 -s 0 -d -1 -p tcp -e 1040 -c 2 -a 0 -i 42 -k AGT 
- -t 80.716130837 -s 0 -d -1 -p tcp -e 1040 -c 2 -a 0 -i 42 -k AGT
h -t 80.716130837 -s 0 -d -1 -p tcp -e 1040 -c 2 -a 0 -i 42 -k AGT
+ -t 80.716130837 -s 0 -d 1 -p tcp -e 1060 -c 2 -a 0 -i 42 -k RTR 
- -t 80.716130837 -s 0 -d 1 -p tcp -e 1060 -c 2 -a 0 -i 42 -k RTR
h -t 80.716130837 -s 0 -d 1 -p tcp -e 1060 -c 2 -a 0 -i 42 -k RTR
r -t 80.726177176 -s 1 -d 1 -p tcp -e 1060 -c 2 -a 0 -i 38 -k AGT
+ -t 80.726177176 -s 1 -d -1 -p ack -e 40 -c 2 -a 0 -i 43 -k AGT 
- -t 80.726177176 -s 1 -d -1 -p ack -e 40 -c 2 -a 0 -i 43 -k AGT
h -t 80.726177176 -s 1 -d -1 -p ack -e 40 -c 2 -a 0 -i 43 -k AGT
+ -t 80.726177176 -s 1 -d 0 -p ack -e 60 -c 2 -a 0 -i 43 -k RTR 
- -t 80.726177176 -s 1 -d 0 -p ack -e 60 -c 2 -a 0 -i 43 -k RTR
h -t 80.726177176 -s 1 -d 0 -p ack -e 60 -c 2 -a 0 -i 43 -k RTR
r -t 80.736184294 -s 1 -d 1 -p tcp -e 1060 -c 2 -a 0 -i 40 -k AGT
+ -t 80.736184294 -s 1 -d -1 -p ack -e 40 -c 2 -a 0 -i 44 -k AGT 
- -t 80.736184294 -s 1 -d -1 -p ack -e 40 -c 2 -a 0 -i 44 -k AGT
h -t 80.736184294 -s 1 -d -1 -p ack -e 40 -c 2 -a 0 -i 44 -k AGT
+ -t 80.736184294 -s 1 -d 0 -p ack -e 60 -c 2 -a 0 -i 44 -k RTR 
- -t 80.736184294 -s 1 -d 0 -p ack -e 60 -c 2 -a 0 -i 44 -k RTR
h -t 80.736184294 -s 1 -d 0 -p ack -e 60 -c 2 -a 0 -i 44 -k RTR
r -t 80.746191411 -s 1 -d 1 -p tcp -e 1060 -c 2 -a 0 -i 42 -k AGT
+ -t 80.746191411 -s 1 -d -1 -p ack -e 40 -c 2 -a 0 -i 45 -k AGT 
- -t 80.746191411 -s 1 -d -1 -p ack -e 40 -c 2 -a 0 -i 45 -k AGT
h -t 80.746191411 -s 1 -d -1 -p ack -e 40 -c 2 -a 0 -i 45 -k AGT
+ -t 80.746191411 -s 1 -d 0 -p ack -e 60 -c 2 -a 0 -i 45 -k RTR 
- -t 80.746191411 -s 1 -d 0 -p ack -e 60 -c 2 -a 0 -i 45 -k RTR
h -t 80.746191411 -s 1 -d 0 -p ack -e 60 -c 2 -a 0 -i 45 -k RTR
r -t 80.748357749 -s 0 -d 0 -p ack -e 60 -c 2 -a 0 -i 43 -k AGT
+ -t 80.748357749 -s 0 -d -1 -p tcp -e 1040 -c 2 -a 0 -i 46 -k AGT 
- -t 80.748357749 -s 0 -d -1 -p tcp -e 1040 -c 2 -a 0 -i 46 -k AGT
h -t 80.748357749 -s 0 -d -1 -p tcp -e 1040 -c 2 -a 0 -i 46 -k AGT
+ -t 80.748357749 -s 0 -d 1 -p tcp -e 1060 -c 2 -a 0 -i 46 -k RTR 
- -t 80.748357749 -s 0 -d 1 -p tcp -e 1060 -c 2 -a 0 -i 46 -k RTR
h -t 80.748357749 -s 0 -d 1 -p tcp -e 1060 -c 2 -a 0 -i 46 -k RTR
+ -t 80.748357749 -s 0 -d -1 -p tcp -e 1040 -c 2 -a 0 -i 47 -k AGT 
- -t 80.748357749 -s 0 -d -1 -p tcp -e 1040 -c 2 -a 0 -i 47 -k AGT
h -t 80.748357749 -s 0 -d -1 -p tcp -e 1040 -c 2 -a 0 -i 47 -k AGT
+ -t 80.748357749 -s 0 -d 1 -p tcp -e 1060 -c 2 -a 0 -i 47 -k RTR 
- -t 80.748357749 -s 0 -d 1 -p tcp -e 1060 -c 2 -a 0 -i 47 -k RTR
h -t 80.748357749 -s 0 -d 1 -p tcp -e 1060 -c 2 -a 0 -i 47 -k RTR
r -t 80.758564086 -s 1 -d 1 -p tcp -e 1060 -c 2 -a 0 -i 46 -k AGT
+ -t 80.758564086 -s 1 -d -1 -p ack -e 40 -c 2 -a 0 -i 48 -k AGT 
- -t 80.758564086 -s 1 -d -1 -p ack -e 40 -c 2 -a 0 -i 48 -k AGT
h -t 80.758564086 -s 1 -d -1 -p ack -e 40 -c 2 -a 0 -i 48 -k AGT
+ -t 80.758564086 -s 1 -d 0 -p ack -e 60 -c 2 -a 0 -i 48 -k RTR 
- -t 80.758564086 -s 1 -d 0 -p ack -e 60 -c 2 -a 0 -i 48 -k RTR
h -t 80.758564086 -s 1 -d 0 -p ack -e 60 -c 2 -a 0 -i 48 -k RTR
r -t 80.760790423 -s 0 -d 0 -p ack -e 60 -c 2 -a 0 -i 44 -k AGT
+ -t 80.760790423 -s 0 -d -1 -p tcp -e 1040 -c 2 -a 0 -i 49 -k AGT 
- -t 80.760790423 -s 0 -d -1 -p tcp -e 1040 -c 2 -a 0 -i 49 -k AGT
h -t 80.760790423 -s 0 -d -1 -p tcp -e 1040 -c 2 -a 0 -i 49 -k AGT
+ -t 80.760790423 -s 0 -d 1 -p tcp -e 1060 -c 2 -a 0 -i 49 -k RTR 
- -t 80.760790423 -s 0 -d 1 -p tcp -e 1060 -c 2 -a 0 -i 49 -k RTR
h -t 80.760790423 -s 0 -d 1 -p tcp -e 1060 -c 2 -a 0 -i 49 -k RTR
r -t 80.770936759 -s 1 -d 1 -p tcp -e 1060 -c 2 -a 0 -i 47 -k AGT
+ -t 80.770936759 -s 1 -d -1 -p ack -e 40 -c 2 -a 0 -i 50 -k AGT 
- -t 80.770936759 -s 1 -d -1 -p ack -e 40 -c 2 -a 0 -i 50 -k AGT
h -t 80.770936759 -s 1 -d -1 -p ack -e 40 -c 2 -a 0 -i 50 -k AGT
+ -t 80.770936759 -s 1 -d 0 -p ack -e 60 -c 2 -a 0 -i 50 -k RTR 
- -t 80.770936759 -s 1 -d 0 -p ack -e 60 -c 2 -a 0 -i 50 -k RTR
h -t 80.770936759 -s 1 -d 0 -p ack -e 60 -c 2 -a 0 -i 50 -k RTR
r -t 80.781243874 -s 1 -d 1 -p tcp -e 1060 -c 2 -a 0 -i 49 -k AGT
+ -t 80.781243874 -s 1 -d -1 -p ack -e 40 -c 2 -a 0 -i 51 -k AGT 
- -t 80.781243874 -s 1 -d -1 -p ack -e 40 -c 2 -a 0 -i 51 -k AGT
h -t 80.781243874 -s 1 -d -1 -p ack -e 40 -c 2 -a 0 -i 51 -k AGT
+ -t 80.781243874 -s 1 -d 0 -p ack -e 60 -c 2 -a 0 -i 51 -k RTR 
- -t 80.781243874 -s 1 -d 0 -p ack -e 60 -c 2 -a 0 -i 51 -k RTR
h -t 80.781243874 -s 1 -d 0 -p ack -e 60 -c 2 -a 0 -i 51 -k RTR
r -t 80.783250210 -s 0 -d 0 -p ack -e 60 -c 2 -a 0 -i 45 -k AGT
+ -t 80.783250210 -s 0 -d -1 -p tcp -e 1040 -c 2 -a 0 -i 52 -k AGT 
- -t 80.783250210 -s 0 -d -1 -p tcp -e 1040 -c 2 -a 0 -i 52 -k AGT
h -t 80.783250210 -s 0 -d -1 -p tcp -e 1040 -c 2 -a 0 -i 52 -k AGT
+ -t 80.783250210 -s 0 -d 1 -p tcp -e 1060 -c 2 -a 0 -i 52 -k RTR 
- -t 80.783250210 -s 0 -d 1 -p tcp -e 1060 -c 2 -a 0 -i 52 -k RTR
h -t 80.783250210 -s 0 -d 1 -p tcp -e 1060 -c 2 -a 0 -i 52 -k RTR
r -t 80.793416545 -s 1 -d 1 -p tcp -e 1060 -c 2 -a 0 -i 52 -k AGT
+ -t 80.793416545 -s 1 -d -1 -p ack -e 40 -c 2 -a 0 -i 53 -k AGT 
- -t 80.793416545 -s 1 -d -1 -p ack -e 40 -c 2 -a 0 -i 53 -k AGT
h -t 80.793416545 -s 1 -d -1 -p ack -e 40 -c 2 -a 0 -i 53 -k AGT
+ -t 80.793416545 -s 1 -d 0 -p ack -e 60 -c 2 -a 0 -i 53 -k RTR 
- -t 80.793416545 -s 1 -d 0 -p ack -e 60 -c 2 -a 0 -i 53 -k RTR
h -t 80.793416545 -s 1 -d 0 -p ack -e 60 -c 2 -a 0 -i 53 -k RTR
r -t 80.795782880 -s 0 -d 0 -p ack -e 60 -c 2 -a 0 -i 48 -k AGT
+ -t 80.795782880 -s 0 -d -1 -p tcp -e 1040 -c 2 -a 0 -i 54 -k AGT 
- -t 80.795782880 -s 0 -d -1 -p tcp -e 1040 -c 2 -a 0 -i 54 -k AGT
h -t 80.795782880 -s 0 -d -1 -p tcp -e 1040 -c 2 -a 0 -i 54 -k AGT
+ -t 80.795782880 -s 0 -d 1 -p tcp -e 1060 -c 2 -a 0 -i 54 -k RTR 
- -t 80.795782880 -s 0 -d 1 -p tcp -e 1060 -c 2 -a 0 -i 54 -k RTR
h -t 80.795782880 -s 0 -d 1 -p tcp -e 1060 -c 2 -a 0 -i 54 -k RTR
r -t 80.805909215 -s 1 -d 1 -p tcp -e 1060 -c 2 -a 0 -i 54 -k AGT
+ -t 80.805909215 -s 1 -d -1 -p ack -e 40 -c 2 -a 0 -i 55 -k AGT 
- -t 80.805909215 -s 1 -d -1 -p ack -e 40 -c 2 -a 0 -i 55 -k AGT
h -t 80.805909215 -s 1 -d -1 -p ack -e 40 -c 2 -a 0 -i 55 -k AGT
+ -t 80.805909215 -s 1 -d 0 -p ack -e 60 -c 2 -a 0 -i 55 -k RTR 
- -t 80.805909215 -s 1 -d 0 -p ack -e 60 -c 2 -a 0 -i 55 -k RTR
h -t 80.805909215 -s 1 -d 0 -p ack -e 60 -c 2 -a 0 -i 55 -k RTR
r -t 80.808015549 -s 0 -d 0 -p ack -e 60 -c 2 -a 0 -i 50 -k AGT
+ -t 80.808015549 -s 0 -d -1 -p tcp -e 1040 -c 2 -a 0 -i 56 -k AGT 
- -t 80.808015549 -s 0 -d -1 -p tcp -e 1040 -c 2 -a 0 -i 56 -k AGT
h -t 80.808015549 -s 0 -d -1 -p tcp -e 1040 -c 2 -a 0 -i 56 -k AGT
+ -t 80.808015549 -s 0 -d 1 -p tcp -e 1060 -c 2 -a 0 -i 56 -k RTR 
- -t 80.808015549 -s 0 -d 1 -p tcp -e 1060 -c 2 -a 0 -i 56 -k RTR
h -t 80.808015549 -s 0 -d 1 -p tcp -e 1060 -c 2 -a 0 -i 56 -k RTR
r -t 80.810002662 -s 0 -d 0 -p ack -e 60 -c 2 -a 0 -i 51 -k AGT
+ -t 80.810002662 -s 0 -d -1 -p tcp -e 1040 -c 2 -a 0 -i 57 -k AGT 
- -t 80.810002662 -s 0 -d -1 -p tcp -e 1040 -c 2 -a 0 -i 57 -k AGT
h -t 80.810002662 -s 0 -d -1 -p tcp -e 1040 -c 2 -a 0 -i 57 -k AGT
+ -t 80.810002662 -s 0 -d 1 -p tcp -e 1060 -c 2 -a 0 -i 57 -k RTR 
- -t 80.810002662 -s 0 -d 1 -p tcp -e 1060 -c 2 -a 0 -i 57 -k RTR
h -t 80.810002662 -s 0 -d 1 -p tcp -e 1060 -c 2 -a 0 -i 57 -k RTR
+ -t 80.810002662 -s 0 -d -1 -p tcp -e 1040 -c 2 -a 0 -i 58 -k AGT 
- -t 80.810002662 -s 0 -d -1 -p tcp -e 1040 -c 2 -a 0 -i 58 -k AGT
h -t 80.810002662 -s 0 -d -1 -p tcp -e 1040 -c 2 -a 0 -i 58 -k AGT
+ -t 80.810002662 -s 0 -d 1 -p tcp -e 1060 -c 2 -a 0 -i 58 -k RTR 
- -t 80.810002662 -s 0 -d 1 -p tcp -e 1060 -c 2 -a 0 -i 58 -k RTR
h -t 80.810002662 -s 0 -d 1 -p tcp -e 1060 -c 2 -a 0 -i 58 -k RTR
r -t 80.820088996 -s 1 -d 1 -p tcp -e 1060 -c 2 -a 0 -i 56 -k AGT
+ -t 80.820088996 -s 1 -d -1 -p ack -e 40 -c 2 -a 0 -i 59 -k AGT 
- -t 80.820088996 -s 1 -d -1 -p ack -e 40 -c 2 -a 0 -i 59 -k AGT
h -t 80.820088996 -s 1 -d -1 -p ack -e 40 -c 2 -a 0 -i 59 -k AGT
+ -t 80.820088996 -s 1 -d 0 -p ack -e 60 -c 2 -a 0 -i 59 -k RTR 
- -t 80.820088996 -s 1 -d 0 -p ack -e 60 -c 2 -a 0 -i 59 -k RTR
h -t 80.820088996 -s 1 -d 0 -p ack -e 60 -c 2 -a 0 -i 59 -k RTR
r -t 80.822535330 -s 0 -d 0 -p ack -e 60 -c 2 -a 0 -i 53 -k AGT
+ -t 80.822535330 -s 0 -d -1 -p tcp -e 1040 -c 2 -a 0 -i 60 -k AGT 
- -t 80.822535330 -s 0 -d -1 -p tcp -e 1040 -c 2 -a 0 -i 60 -k AGT
h -t 80.822535330 -s 0 -d -1 -p tcp -e 1040 -c 2 -a 0 -i 60 -k AGT
+ -t 80.822535330 -s 0 -d 1 -p tcp -e 1060 -c 2 -a 0 -i 60 -k RTR 
- -t 80.822535330 -s 0 -d 1 -p tcp -e 1060 -c 2 -a 0 -i 60 -k RTR
h -t 80.822535330 -s 0 -d 1 -p tcp -e 1060 -c 2 -a 0 -i 60 -k RTR
r -t 80.832641663 -s 1 -d 1 -p tcp -e 1060 -c 2 -a 0 -i 57 -k AGT
+ -t 80.832641663 -s 1 -d -1 -p ack -e 40 -c 2 -a 0 -i 61 -k AGT 
- -t 80.832641663 -s 1 -d -1 -p ack -e 40 -c 2 -a 0 -i 61 -k AGT
h -t 80.832641663 -s 1 -d -1 -p ack -e 40 -c 2 -a 0 -i 61 -k AGT
+ -t 80.832641663 -s 1 -d 0 -p ack -e 60 -c 2 -a 0 -i 61 -k RTR 
- -t 80.832641663 -s 1 -d 0 -p ack -e 60 -c 2 -a 0 -i 61 -k RTR
h -t 80.832641663 -s 1 -d 0 -p ack -e 60 -c 2 -a 0 -i 61 -k RTR
r -t 80.835107996 -s 0 -d 0 -p ack -e 60 -c 2 -a 0 -i 55 -k AGT
+ -t 80.835107996 -s 0 -d -1 -p tcp -e 1040 -c 2 -a 0 -i 62 -k AGT 
- -t 80.835107996 -s 0 -d -1 -p tcp -e 1040 -c 2 -a 0 -i 62 -k AGT
h -t 80.835107996 -s 0 -d -1 -p tcp -e 1040 -c 2 -a 0 -i 62 -k AGT
+ -t 80.835107996 -s 0 -d 1 -p tcp -e 1060 -c 2 -a 0 -i 62 -k RTR 
- -t 80.835107996 -s 0 -d 1 -p tcp -e 1060 -c 2 -a 0 -i 62 -k RTR
h -t 80.835107996 -s 0 -d 1 -p tcp -e 1060 -c 2 -a 0 -i 62 -k RTR
r -t 80.845214329 -s 1 -d 1 -p tcp -e 1060 -c 2 -a 0 -i 58 -k AGT
+ -t 80.845214329 -s 1 -d -1 -p ack -e 40 -c 2 -a 0 -i 63 -k AGT 
- -t 80.845214329 -s 1 -d -1 -p ack -e 40 -c 2 -a 0 -i 63 -k AGT
h -t 80.845214329 -s 1 -d -1 -p ack -e 40 -c 2 -a 0 -i 63 -k AGT
+ -t 80.845214329 -s 1 -d 0 -p ack -e 60 -c 2 -a 0 -i 63 -k RTR 
- -t 80.845214329 -s 1 -d 0 -p ack -e 60 -c 2 -a 0 -i 63 -k RTR
h -t 80.845214329 -s 1 -d 0 -p ack -e 60 -c 2 -a 0 -i 63 -k RTR
r -t 80.847320661 -s 0 -d 0 -p ack -e 60 -c 2 -a 0 -i 59 -k AGT
+ -t 80.847320661 -s 0 -d -1 -p tcp -e 1040 -c 2 -a 0 -i 64 -k AGT 
- -t 80.847320661 -s 0 -d -1 -p tcp -e 1040 -c 2 -a 0 -i 64 -k AGT
h -t 80.847320661 -s 0 -d -1 -p tcp -e 1040 -c 2 -a 0 -i 64 -k AGT
+ -t 80.847320661 -s 0 -d 1 -p tcp -e 1060 -c 2 -a 0 -i 64 -k RTR 
- -t 80.847320661 -s 0 -d 1 -p tcp -e 1060 -c 2 -a 0 -i 64 -k RTR
h -t 80.847320661 -s 0 -d 1 -p tcp -e 1060 -c 2 -a 0 -i 64 -k RTR
r -t 80.849447771 -s 0 -d 0 -p ack -e 60 -c 2 -a 0 -i 61 -k AGT
+ -t 80.849447771 -s 0 -d -1 -p tcp -e 1040 -c 2 -a 0 -i 65 -k AGT 
- -t 80.849447771 -s 0 -d -1 -p tcp -e 1040 -c 2 -a 0 -i 65 -k AGT
h -t 80.849447771 -s 0 -d -1 -p tcp -e 1040 -c 2 -a 0 -i 65 -k AGT
+ -t 80.849447771 -s 0 -d 1 -p tcp -e 1060 -c 2 -a 0 -i 65 -k RTR 
- -t 80.849447771 -s 0 -d 1 -p tcp -e 1060 -c 2 -a 0 -i 65 -k RTR
h -t 80.849447771 -s 0 -d 1 -p tcp -e 1060 -c 2 -a 0 -i 65 -k RTR
r -t 80.851674881 -s 0 -d 0 -p ack -e 60 -c 2 -a 0 -i 63 -k AGT
+ -t 80.851674881 -s 0 -d -1 -p tcp -e 1040 -c 2 -a 0 -i 66 -k AGT 
- -t 80.851674881 -s 0 -d -1 -p tcp -e 1040 -c 2 -a 0 -i 66 -k AGT
h -t 80.851674881 -s 0 -d -1 -p tcp -e 1040 -c 2 -a 0 -i 66 -k AGT
+ -t 80.851674881 -s 0 -d 1 -p tcp -e 1060 -c 2 -a 0 -i 66 -k RTR 
- -t 80.851674881 -s 0 -d 1 -p tcp -e 1060 -c 2 -a 0 -i 66 -k RTR
h -t 80.851674881 -s 0 -d 1 -p tcp -e 1060 -c 2 -a 0 -i 66 -k RTR
+ -t 80.851674881 -s 0 -d -1 -p tcp -e 1040 -c 2 -a 0 -i 67 -k AGT 
- -t 80.851674881 -s 0 -d -1 -p tcp -e 1040 -c 2 -a 0 -i 67 -k AGT
h -t 80.851674881 -s 0 -d -1 -p tcp -e 1040 -c 2 -a 0 -i 67 -k AGT
+ -t 80.851674881 -s 0 -d 1 -p tcp -e 1060 -c 2 -a 0 -i 67 -k RTR 
- -t 80.851674881 -s 0 -d 1 -p tcp -e 1060 -c 2 -a 0 -i 67 -k RTR
h -t 80.851674881 -s 0 -d 1 -p tcp -e 1060 -c 2 -a 0 -i 67 -k RTR
r -t 80.861701213 -s 1 -d 1 -p tcp -e 1060 -c 2 -a 0 -i 60 -k AGT
+ -t 80.861701213 -s 1 -d -1 -p ack -e 40 -c 2 -a 0 -i 68 -k AGT 
- -t 80.861701213 -s 1 -d -1 -p ack -e 40 -c 2 -a 0 -i 68 -k AGT
h -t 80.861701213 -s 1 -d -1 -p ack -e 40 -c 2 -a 0 -i 68 -k AGT
+ -t 80.861701213 -s 1 -d 0 -p ack -e 60 -c 2 -a 0 -i 68 -k RTR 
- -t 80.861701213 -s 1 -d 0 -p ack -e 60 -c 2 -a 0 -i 68 -k RTR
h -t 80.861701213 -s 1 -d 0 -p ack -e 60 -c 2 -a 0 -i 68 -k RTR
r -t 80.871788322 -s 1 -d 1 -p tcp -e 1060 -c 2 -a 0 -i 62 -k AGT
+ -t 80.871788322 -s 1 -d -1 -p ack -e 40 -c 2 -a 0 -i 69 -k AGT 
- -t 80.871788322 -s 1 -d -1 -p ack -e 40 -c 2 -a 0 -i 69 -k AGT
h -t 80.871788322 -s 1 -d -1 -p ack -e 40 -c 2 -a 0 -i 69 -k AGT
+ -t 80.871788322 -s 1 -d 0 -p ack -e 60 -c 2 -a 0 -i 69 -k RTR 
- -t 80.871788322 -s 1 -d 0 -p ack -e 60 -c 2 -a 0 -i 69 -k RTR
h -t 80.871788322 -s 1 -d 0 -p ack -e 60 -c 2 -a 0 -i 69 -k RTR
r -t 80.881955430 -s 1 -d 1 -p tcp -e 1060 -c 2 -a 0 -i 64 -k AGT
+ -t 80.881955430 -s 1 -d -1 -p ack -e 40 -c 2 -a 0 -i 70 -k AGT 
- -t 80.881955430 -s 1 -d -1 -p ack -e 40 -c 2 -a 0 -i 70 -k AGT
h -t 80.881955430 -s 1 -d -1 -p ack -e 40 -c 2 -a 0 -i 70 -k AGT
+ -t 80.881955430 -s 1 -d 0 -p ack -e 60 -c 2 -a 0 -i 70 -k RTR 
- -t 80.881955430 -s 1 -d 0 -p ack -e 60 -c 2 -a 0 -i 70 -k RTR
h -t 80.881955430 -s 1 -d 0 -p ack -e 60 -c 2 -a 0 -i 70 -k RTR
r -t 80.891942537 -s 1 -d 1 -p tcp -e 1060 -c 2 -a 0 -i 65 -k AGT
+ -t 80.891942537 -s 1 -d -1 -p ack -e 40 -c 2 -a 0 -i 71 -k AGT 
- -t 80.891942537 -s 1 -d -1 -p ack -e 40 -c 2 -a 0 -i 71 -k AGT
h -t 80.891942537 -s 1 -d -1 -p ack -e 40 -c 2 -a 0 -i 71 -k AGT
+ -t 80.891942537 -s 1 -d 0 -p ack -e 60 -c 2 -a 0 -i 71 -k RTR 
- -t 80.891942537 -s 1 -d 0 -p ack -e 60 -c 2 -a 0 -i 71 -k RTR
h -t 80.891942537 -s 1 -d 0 -p ack -e 60 -c 2 -a 0 -i 71 -k RTR
r -t 80.894148867 -s 0 -d 0 -p ack -e 60 -c 2 -a 0 -i 68 -k AGT
+ -t 80.894148867 -s 0 -d -1 -p tcp -e 1040 -c 2 -a 0 -i 72 -k AGT 
- -t 80.894148867 -s 0 -d -1 -p tcp -e 1040 -c 2 -a 0 -i 72 -k AGT
h -t 80.894148867 -s 0 -d -1 -p tcp -e 1040 -c 2 -a 0 -i 72 -k AGT
+ -t 80.894148867 -s 0 -d 1 -p tcp -e 1060 -c 2 -a 0 -i 72 -k RTR 
- -t 80.894148867 -s 0 -d 1 -p tcp -e 1060 -c 2 -a 0 -i 72 -k RTR
h -t 80.894148867 -s 0 -d 1 -p tcp -e 1060 -c 2 -a 0 -i 72 -k RTR
r -t 80.904315197 -s 1 -d 1 -p tcp -e 1060 -c 2 -a 0 -i 66 -k AGT
+ -t 80.904315197 -s 1 -d -1 -p ack -e 40 -c 2 -a 0 -i 73 -k AGT 
- -t 80.904315197 -s 1 -d -1 -p ack -e 40 -c 2 -a 0 -i 73 -k AGT
h -t 80.904315197 -s 1 -d -1 -p ack -e 40 -c 2 -a 0 -i 73 -k AGT
+ -t 80.904315197 -s 1 -d 0 -p ack -e 60 -c 2 -a 0 -i 73 -k RTR 
- -t 80.904315197 -s 1 -d 0 -p ack -e 60 -c 2 -a 0 -i 73 -k RTR
h -t 80.904315197 -s 1 -d 0 -p ack -e 60 -c 2 -a 0 -i 73 -k RTR
r -t 80.914542303 -s 1 -d 1 -p tcp -e 1060 -c 2 -a 0 -i 67 -k AGT
+ -t 80.914542303 -s 1 -d -1 -p ack -e 40 -c 2 -a 0 -i 74 -k AGT 
- -t 80.914542303 -s 1 -d -1 -p ack -e 40 -c 2 -a 0 -i 74 -k AGT
h -t 80.914542303 -s 1 -d -1 -p ack -e 40 -c 2 -a 0 -i 74 -k AGT
+ -t 80.914542303 -s 1 -d 0 -p ack -e 60 -c 2 -a 0 -i 74 -k RTR 
- -t 80.914542303 -s 1 -d 0 -p ack -e 60 -c 2 -a 0 -i 74 -k RTR
h -t 80.914542303 -s 1 -d 0 -p ack -e 60 -c 2 -a 0 -i 74 -k RTR
r -t 80.924529409 -s 1 -d 1 -p tcp -e 1060 -c 2 -a 0 -i 72 -k AGT
+ -t 80.924529409 -s 1 -d -1 -p ack -e 40 -c 2 -a 0 -i 75 -k AGT 
- -t 80.924529409 -s 1 -d -1 -p ack -e 40 -c 2 -a 0 -i 75 -k AGT
h -t 80.924529409 -s 1 -d -1 -p ack -e 40 -c 2 -a 0 -i 75 -k AGT
+ -t 80.924529409 -s 1 -d 0 -p ack -e 60 -c 2 -a 0 -i 75 -k RTR 