s 0.029290548 _1_ RTR  --- 0 message 32 [0 0 0 0] ------- [1:255 -1:255 32 0] 
M 1.00000 0 (5.00, 2.00, 0.00), (40.00, 20.00), 2.00
s 1.119926192 _0_ RTR  --- 1 message 32 [0 0 0 0] ------- [0:255 -1:255 32 0] 
M 5.00000 1 (390.00, 385.00, 0.00), (10.00, 50.00), 15.00
s 10.000000000 _0_ AGT  --- 2 tcp 40 [0 0 0 0] ------- [0:0 1:0 32 0] [0 0] 0 0
r 10.000000000 _0_ RTR  --- 2 tcp 40 [0 0 0 0] ------- [0:0 1:0 32 0] [0 0] 0 0
s 12.941172739 _1_ RTR  --- 3 message 32 [0 0 0 0] ------- [1:255 -1:255 32 0] 
s 13.000000000 _0_ AGT  --- 4 tcp 40 [0 0 0 0] ------- [0:0 1:0 32 0] [0 0] 0 0
r 13.000000000 _0_ RTR  --- 4 tcp 40 [0 0 0 0] ------- [0:0 1:0 32 0] [0 0] 0 0
s 13.242656084 _0_ RTR  --- 5 message 32 [0 0 0 0] ------- [0:255 -1:255 32 0] 
s 19.000000000 _0_ AGT  --- 6 tcp 40 [0 0 0 0] ------- [0:0 1:0 32 0] [0 0] 0 0
r 19.000000000 _0_ RTR  --- 6 tcp 40 [0 0 0 0] ------- [0:0 1:0 32 0] [0 0] 0 0
s 24.799296167 _1_ RTR  --- 7 message 32 [0 0 0 0] ------- [1:255 -1:255 32 0] 
r 24.800316871 _0_ RTR  --- 7 message 32 [0 ffffffff 1 800] ------- [1:255 -1:255 32 0] 
s 24.800316871 _0_ RTR  --- 2 tcp 80 [0 0 0 0] ------- [0:0 1:0 32 1] [0 0] 0 0
s 24.800316871 _0_ RTR  --- 4 tcp 80 [0 0 0 0] ------- [0:0 1:0 32 1] [0 0] 0 0
D 24.800316871 _0_ IFQ  ARP 2 tcp 80 [0 0 0 800] ------- [0:0 1:0 32 1] [0 0] 0 0
s 24.800316871 _0_ RTR  --- 6 tcp 80 [0 0 0 0] ------- [0:0 1:0 32 1] [0 0] 0 0
D 24.800316871 _0_ IFQ  ARP 4 tcp 80 [0 0 0 800] ------- [0:0 1:0 32 1] [0 0] 0 0
r 24.808874613 _1_ AGT  --- 6 tcp 80 [13a 1 0 800] ------- [0:0 1:0 32 1] [0 0] 1 0
s 24.808874613 _1_ AGT  --- 8 ack 40 [0 0 0 0] ------- [1:0 0:0 32 0] [0 0] 0 0
r 24.808874613 _1_ RTR  --- 8 ack 40 [0 0 0 0] ------- [1:0 0:0 32 0] [0 0] 0 0
s 27.724007932 _0_ RTR  --- 9 message 44 [0 0 0 0] ------- [0:255 -1:255 32 0] 
r 27.725284494 _1_ RTR  --- 9 message 44 [0 ffffffff 0 800] ------- [0:255 -1:255 32 0] 
s 27.725284494 _1_ RTR  --- 8 ack 80 [0 0 0 0] ------- [1:0 0:0 32 0] [0 0] 0 0
r 27.727246178 _0_ AGT  --- 8 ack 80 [13a 0 1 800] ------- [1:0 0:0 32 0] [0 0] 1 0
s 27.727246178 _0_ AGT  --- 10 tcp 1040 [0 0 0 0] ------- [0:0 1:0 32 0] [1 0] 0 0
r 27.727246178 _0_ RTR  --- 10 tcp 1040 [0 0 0 0] ------- [0:0 1:0 32 0] [1 0] 0 0
s 27.727246178 _0_ RTR  --- 10 tcp 1060 [0 0 0 0] ------- [0:0 1:0 32 1] [1 0] 0 0
r 27.737251862 _1_ AGT  --- 10 tcp 1060 [13a 1 0 800] ------- [0:0 1:0 32 1] [1 0] 1 0
s 27.737251862 _1_ AGT  --- 11 ack 40 [0 0 0 0] ------- [1:0 0:0 32 0] [1 0] 0 0
r 27.737251862 _1_ RTR  --- 11 ack 40 [0 0 0 0] ------- [1:0 0:0 32 0] [1 0] 0 0
s 27.737251862 _1_ RTR  --- 11 ack 60 [0 0 0 0] ------- [1:0 0:0 32 0] [1 0] 0 0
r 27.739517545 _0_ AGT  --- 11 ack 60 [13a 0 1 800] ------- [1:0 0:0 32 0] [1 0] 1 0
s 27.739517545 _0_ AGT  --- 12 tcp 1040 [0 0 0 0] ------- [0:0 1:0 32 0] [2 0] 0 0
r 27.739517545 _0_ RTR  --- 12 tcp 1040 [0 0 0 0] ------- [0:0 1:0 32 0] [2 0] 0 0
s 27.739517545 _0_ RTR  --- 12 tcp 1060 [0 0 0 0] ------- [0:0 1:0 32 1] [2 0] 0 0
s 27.739517545 _0_ AGT  --- 13 tcp 1040 [0 0 0 0] ------- [0:0 1:0 32 0] [3 0] 0 0
r 27.739517545 _0_ RTR  --- 13 tcp 1040 [0 0 0 0] ------- [0:0 1:0 32 0] [3 0] 0 0
s 27.739517545 _0_ RTR  --- 13 tcp 1060 [0 0 0 0] ------- [0:0 1:0 32 1] [3 0] 0 0
r 27.749603227 _1_ AGT  --- 12 tcp 1060 [13a 1 0 800] ------- [0:0 1:0 32 1] [2 0] 1 0
s 27.749603227 _1_ AGT  --- 14 ack 40 [0 0 0 0] ------- [1:0 0:0 32 0] [2 0] 0 0
r 27.749603227 _1_ RTR  --- 14 ack 40 [0 0 0 0] ------- [1:0 0:0 32 0] [2 0] 0 0
s 27.749603227 _1_ RTR  --- 14 ack 60 [0 0 0 0] ------- [1:0 0:0 32 0] [2 0] 0 0
r 27.759809468 _1_ AGT  --- 13 tcp 1060 [13a 1 0 800] ------- [0:0 1:0 32 1] [3 0] 1 0
s 27.759809468 _1_ AGT  --- 15 ack 40 [0 0 0 0] ------- [1:0 0:0 32 0] [3 0] 0 0
r 27.759809468 _1_ RTR  --- 15 ack 40 [0 0 0 0] ------- [1:0 0:0 32 0] [3 0] 0 0
s 27.759809468 _1_ RTR  --- 15 ack 60 [0 0 0 0] ------- [1:0 0:0 32 0] [3 0] 0 0
r 27.762015147 _0_ AGT  --- 14 ack 60 [13a 0 1 800] ------- [1:0 0:0 32 0] [2 0] 1 0
s 27.762015147 _0_ AGT  --- 16 tcp 1040 [0 0 0 0] ------- [0:0 1:0 32 0] [4 0] 0 0
r 27.762015147 _0_ RTR  --- 16 tcp 1040 [0 0 0 0] ------- [0:0 1:0 32 0] [4 0] 0 0
s 27.762015147 _0_ RTR  --- 16 tcp 1060 [0 0 0 0] ------- [0:0 1:0 32 1] [4 0] 0 0
r 27.764061386 _0_ AGT  --- 15 ack 60 [13a 0 1 800] ------- [1:0 0:0 32 0] [3 0] 1 0
s 27.764061386 _0_ AGT  --- 17 tcp 1040 [0 0 0 0] ------- [0:0 1:0 32 0] [5 0] 0 0
r 27.764061386 _0_ RTR  --- 17 tcp 1040 [0 0 0 0] ------- [0:0 1:0 32 0] [5 0] 0 0
s 27.764061386 _0_ RTR  --- 17 tcp 1060 [0 0 0 0] ------- [0:0 1:0 32 1] [5 0] 0 0
r 27.774567065 _1_ AGT  --- 16 tcp 1060 [13a 1 0 800] ------- [0:0 1:0 32 1] [4 0] 1 0
s 27.774567065 _1_ AGT  --- 18 ack 40 [0 0 0 0] ------- [1:0 0:0 32 0] [4 0] 0 0
r 27.774567065 _1_ RTR  --- 18 ack 40 [0 0 0 0] ------- [1:0 0:0 32 0] [4 0] 0 0
s 27.774567065 _1_ RTR  --- 18 ack 60 [0 0 0 0] ------- [1:0 0:0 32 0] [4 0] 0 0
r 27.776892742 _0_ AGT  --- 18 ack 60 [13a 0 1 800] ------- [1:0 0:0 32 0] [4 0] 1 0
s 27.776892742 _0_ AGT  --- 19 tcp 1040 [0 0 0 0] ------- [0:0 1:0 32 0] [6 0] 0 0
r 27.776892742 _0_ RTR  --- 19 tcp 1040 [0 0 0 0] ------- [0:0 1:0 32 0] [6 0] 0 0
s 27.776892742 _0_ RTR  --- 19 tcp 1060 [0 0 0 0] ------- [0:0 1:0 32 1] [6 0] 0 0
s 27.776892742 _0_ AGT  --- 20 tcp 1040 [0 0 0 0] ------- [0:0 1:0 32 0] [7 0] 0 0
r 27.776892742 _0_ RTR  --- 20 tcp 1040 [0 0 0 0] ------- [0:0 1:0 32 0] [7 0] 0 0
s 27.776892742 _0_ RTR  --- 20 tcp 1060 [0 0 0 0] ------- [0:0 1:0 32 1] [7 0] 0 0
r 27.787058419 _1_ AGT  --- 17 tcp 1060 [13a 1 0 800] ------- [0:0 1:0 32 1] [5 0] 1 0
s 27.787058419 _1_ AGT  --- 21 ack 40 [0 0 0 0] ------- [1:0 0:0 32 0] [5 0] 0 0
r 27.787058419 _1_ RTR  --- 21 ack 40 [0 0 0 0] ------- [1:0 0:0 32 0] [5 0] 0 0
s 27.787058419 _1_ RTR  --- 21 ack 60 [0 0 0 0] ------- [1:0 0:0 32 0] [5 0] 0 0
r 27.789164094 _0_ AGT  --- 21 ack 60 [13a 0 1 800] ------- [1:0 0:0 32 0] [5 0] 1 0
s 27.789164094 _0_ AGT  --- 22 tcp 1040 [0 0 0 0] ------- [0:0 1:0 32 0] [8 0] 0 0
r 27.789164094 _0_ RTR  --- 22 tcp 1040 [0 0 0 0] ------- [0:0 1:0 32 0] [8 0] 0 0
s 27.789164094 _0_ RTR  --- 22 tcp 1060 [0 0 0 0] ------- [0:0 1:0 32 1] [8 0] 0 0
r 27.799229769 _1_ AGT  --- 19 tcp 1060 [13a 1 0 800] ------- [0:0 1:0 32 1] [6 0] 1 0
s 27.799229769 _1_ AGT  --- 23 ack 40 [0 0 0 0] ------- [1:0 0:0 32 0] [6 0] 0 0
r 27.799229769 _1_ RTR  --- 23 ack 40 [0 0 0 0] ------- [1:0 0:0 32 0] [6 0] 0 0
s 27.799229769 _1_ RTR  --- 23 ack 60 [0 0 0 0] ------- [1:0 0:0 32 0] [6 0] 0 0
r 27.801435443 _0_ AGT  --- 23 ack 60 [13a 0 1 800] ------- [1:0 0:0 32 0] [6 0] 1 0
s 27.801435443 _0_ AGT  --- 24 tcp 1040 [0 0 0 0] ------- [0:0 1:0 32 0] [9 0] 0 0
r 27.801435443 _0_ RTR  --- 24 tcp 1040 [0 0 0 0] ------- [0:0 1:0 32 0] [9 0] 0 0
s 27.801435443 _0_ RTR  --- 24 tcp 1060 [0 0 0 0] ------- [0:0 1:0 32 1] [9 0] 0 0
r 27.811701116 _1_ AGT  --- 20 tcp 1060 [13a 1 0 800] ------- [0:0 1:0 32 1] [7 0] 1 0
s 27.811701116 _1_ AGT  --- 25 ack 40 [0 0 0 0] ------- [1:0 0:0 32 0] [7 0] 0 0
r 27.811701116 _1_ RTR  --- 25 ack 40 [0 0 0 0] ------- [1:0 0:0 32 0] [7 0] 0 0
s 27.811701116 _1_ RTR  --- 25 ack 60 [0 0 0 0] ------- [1:0 0:0 32 0] [7 0] 0 0
r 27.813906788 _0_ AGT  --- 25 ack 60 [13a 0 1 800] ------- [1:0 0:0 32 0] [7 0] 1 0
s 27.813906788 _0_ AGT  --- 26 tcp 1040 [0 0 0 0] ------- [0:0 1:0 32 0] [10 0] 0 0
r 27.813906788 _0_ RTR  --- 26 tcp 1040 [0 0 0 0] ------- [0:0 1:0 32 0] [10 0] 0 0
s 27.813906788 _0_ RTR  --- 26 tcp 1060 [0 0 0 0] ------- [0:0 1:0 32 1] [10 0] 0 0
s 27.813906788 _0_ AGT  --- 27 tcp 1040 [0 0 0 0] ------- [0:0 1:0 32 0] [11 0] 0 0
r 27.813906788 _0_ RTR  --- 27 tcp 1040 [0 0 0 0] ------- [0:0 1:0 32 0] [11 0] 0 0
s 27.813906788 _0_ RTR  --- 27 tcp 1060 [0 0 0 0] ------- [0:0 1:0 32 1] [11 0] 0 0
r 27.824012459 _1_ AGT  --- 22 tcp 1060 [13a 1 0 800] ------- [0:0 1:0 32 1] [8 0] 1 0
s 27.824012459 _1_ AGT  --- 28 ack 40 [0 0 0 0] ------- [1:0 0:0 32 0] [8 0] 0 0
r 27.824012459 _1_ RTR  --- 28 ack 40 [0 0 0 0] ------- [1:0 0:0 32 0] [8 0] 0 0
s 27.824012459 _1_ RTR  --- 28 ack 60 [0 0 0 0] ------- [1:0 0:0 32 0] [8 0] 0 0
r 27.826058130 _0_ AGT  --- 28 ack 60 [13a 0 1 800] ------- [1:0 0:0 32 0] [8 0] 1 0
s 27.826058130 _0_ AGT  --- 29 tcp 1040 [0 0 0 0] ------- [0:0 1:0 32 0] [12 0] 0 0
r 27.826058130 _0_ RTR  --- 29 tcp 1040 [0 0 0 0] ------- [0:0 1:0 32 0] [12 0] 0 0
s 27.826058130 _0_ RTR  --- 29 tcp 1060 [0 0 0 0] ------- [0:0 1:0 32 1] [12 0] 0 0
r 27.836223799 _1_ AGT  --- 24 tcp 1060 [13a 1 0 800] ------- [0:0 1:0 32 1] [9 0] 1 0
s 27.836223799 _1_ AGT  --- 30 ack 40 [0 0 0 0] ------- [1:0 0:0 32 0] [9 0] 0 0
r 27.836223799 _1_ RTR  --- 30 ack 40 [0 0 0 0] ------- [1:0 0:0 32 0] [9 0] 0 0
s 27.836223799 _1_ RTR  --- 30 ack 60 [0 0 0 0] ------- [1:0 0:0 32 0] [9 0] 0 0
r 27.846210024 _1_ AGT  --- 26 tcp 1060 [13a 1 0 800] ------- [0:0 1:0 32 1] [10 0] 1 0
s 27.846210024 _1_ AGT  --- 31 ack 40 [0 0 0 0] ------- [1:0 0:0 32 0] [10 0] 0 0
r 27.846210024 _1_ RTR  --- 31 ack 40 [0 0 0 0] ------- [1:0 0:0 32 0] [10 0] 0 0
s 27.846210024 _1_ RTR  --- 31 ack 60 [0 0 0 0] ------- [1:0 0:0 32 0] [10 0] 0 0
r 27.856436246 _1_ AGT  --- 27 tcp 1060 [13a 1 0 800] ------- [0:0 1:0 32 1] [11 0] 1 0
s 27.856436246 _1_ AGT  --- 32 ack 40 [0 0 0 0] ------- [1:0 0:0 32 0] [11 0] 0 0
r 27.856436246 _1_ RTR  --- 32 ack 40 [0 0 0 0] ------- [1:0 0:0 32 0] [11 0] 0 0
s 27.856436246 _1_ RTR  --- 32 ack 60 [0 0 0 0] ------- [1:0 0:0 32 0] [11 0] 0 0
r 27.858481911 _0_ AGT  --- 30 ack 60 [13a 0 1 800] ------- [1:0 0:0 32 0] [9 0] 1 0
s 27.858481911 _0_ AGT  --- 33 tcp 1040 [0 0 0 0] ------- [0:0 1:0 32 0] [13 0] 0 0
r 27.858481911 _0_ RTR  --- 33 tcp 1040 [0 0 0 0] ------- [0:0 1:0 32 0] [13 0] 0 0
s 27.858481911 _0_ RTR  --- 33 tcp 1060 [0 0 0 0] ------- [0:0 1:0 32 1] [13 0] 0 0
r 27.868727576 _1_ AGT  --- 29 tcp 1060 [13a 1 0 800] ------- [0:0 1:0 32 1] [12 0] 1 0
s 27.868727576 _1_ AGT  --- 34 ack 40 [0 0 0 0] ------- [1:0 0:0 32 0] [12 0] 0 0
r 27.868727576 _1_ RTR  --- 34 ack 40 [0 0 0 0] ------- [1:0 0:0 32 0] [12 0] 0 0
s 27.868727576 _1_ RTR  --- 34 ack 60 [0 0 0 0] ------- [1:0 0:0 32 0] [12 0] 0 0
r 27.878733794 _1_ AGT  --- 33 tcp 1060 [13a 1 0 800] ------- [0:0 1:0 32 1] [13 0] 1 0
s 27.878733794 _1_ AGT  --- 35 ack 40 [0 0 0 0] ------- [1:0 0:0 32 0] [13 0] 0 0
r 27.878733794 _1_ RTR  --- 35 ack 40 [0 0 0 0] ------- [1:0 0:0 32 0] [13 0] 0 0
s 27.878733794 _1_ RTR  --- 35 ack 60 [0 0 0 0] ------- [1:0 0:0 32 0] [13 0] 0 0
r 27.880739457 _0_ AGT  --- 31 ack 60 [13a 0 1 800] ------- [1:0 0:0 32 0] [10 0] 1 0
s 27.880739457 _0_ AGT  --- 36 tcp 1040 [0 0 0 0] ------- [0:0 1:0 32 0] [14 0] 0 0
r 27.880739457 _0_ RTR  --- 36 tcp 1040 [0 0 0 0] ------- [0:0 1:0 32 0] [14 0] 0 0
s 27.880739457 _0_ RTR  --- 36 tcp 1060 [0 0 0 0] ------- [0:0 1:0 32 1] [14 0] 0 0
r 27.882965672 _0_ AGT  --- 32 ack 60 [13a 0 1 800] ------- [1:0 0:0 32 0] [11 0] 1 0
s 27.882965672 _0_ AGT  --- 37 tcp 1040 [0 0 0 0] ------- [0:0 1:0 32 0] [15 0] 0 0
r 27.882965672 _0_ RTR  --- 37 tcp 1040 [0 0 0 0] ------- [0:0 1:0 32 0] [15 0] 0 0
s 27.882965672 _0_ RTR  --- 37 tcp 1060 [0 0 0 0] ------- [0:0 1:0 32 1] [15 0] 0 0
r 27.885071888 _0_ AGT  --- 34 ack 60 [13a 0 1 800] ------- [1:0 0:0 32 0] [12 0] 1 0
s 27.885071888 _0_ AGT  --- 38 tcp 1040 [0 0 0 0] ------- [0:0 1:0 32 0] [16 0] 0 0
r 27.885071888 _0_ RTR  --- 38 tcp 1040 [0 0 0 0] ------- [0:0 1:0 32 0] [16 0] 0 0
s 27.885071888 _0_ RTR  --- 38 tcp 1060 [0 0 0 0] ------- [0:0 1:0 32 1] [16 0] 0 0
s 27.885071888 _0_ AGT  --- 39 tcp 1040 [0 0 0 0] ------- [0:0 1:0 32 0] [17 0] 0 0
r 27.885071888 _0_ RTR  --- 39 tcp 1040 [0 0 0 0] ------- [0:0 1:0 32 0] [17 0] 0 0
s 27.885071888 _0_ RTR  --- 39 tcp 1060 [0 0 0 0] ------- [0:0 1:0 32 1] [17 0] 0 0
r 27.895177549 _1_ AGT  --- 36 tcp 1060 [13a 1 0 800] ------- [0:0 1:0 32 1] [14 0] 1 0
s 27.895177549 _1_ AGT  --- 40 ack 40 [0 0 0 0] ------- [1:0 0:0 32 0] [14 0] 0 0
r 27.895177549 _1_ RTR  --- 40 ack 40 [0 0 0 0] ------- [1:0 0:0 32 0] [14 0] 0 0
s 27.895177549 _1_ RTR  --- 40 ack 60 [0 0 0 0] ------- [1:0 0:0 32 0] [14 0] 0 0
r 27.905203762 _1_ AGT  --- 37 tcp 1060 [13a 1 0 800] ------- [0:0 1:0 32 1] [15 0] 1 0
s 27.905203762 _1_ AGT  --- 41 ack 40 [0 0 0 0] ------- [1:0 0:0 32 0] [15 0] 0 0
r 27.905203762 _1_ RTR  --- 41 ack 40 [0 0 0 0] ------- [1:0 0:0 32 0] [15 0] 0 0
s 27.905203762 _1_ RTR  --- 41 ack 60 [0 0 0 0] ------- [1:0 0:0 32 0] [15 0] 0 0
r 27.907349420 _0_ AGT  --- 35 ack 60 [13a 0 1 800] ------- [1:0 0:0 32 0] [13 0] 1 0
s 27.907349420 _0_ AGT  --- 42 tcp 1040 [0 0 0 0] ------- [0:0 1:0 32 0] [18 0] 0 0
r 27.907349420 _0_ RTR  --- 42 tcp 1040 [0 0 0 0] ------- [0:0 1:0 32 0] [18 0] 0 0
s 27.907349420 _0_ RTR  --- 42 tcp 1060 [0 0 0 0] ------- [0:0 1:0 32 1] [18 0] 0 0
r 27.909455631 _0_ AGT  --- 40 ack 60 [13a 0 1 800] ------- [1:0 0:0 32 0] [14 0] 1 0
s 27.909455631 _0_ AGT  --- 43 tcp 1040 [0 0 0 0] ------- [0:0 1:0 32 0] [19 0] 0 0
r 27.909455631 _0_ RTR  --- 43 tcp 1040 [0 0 0 0] ------- [0:0 1:0 32 0] [19 0] 0 0
s 27.909455631 _0_ RTR  --- 43 tcp 1060 [0 0 0 0] ------- [0:0 1:0 32 1] [19 0] 0 0
r 27.919641288 _1_ AGT  --- 38 tcp 1060 [13a 1 0 800] ------- [0:0 1:0 32 1] [16 0] 1 0
s 27.919641288 _1_ AGT  --- 44 ack 40 [0 0 0 0] ------- [1:0 0:0 32 0] [16 0] 0 0
r 27.919641288 _1_ RTR  --- 44 ack 40 [0 0 0 0] ------- [1:0 0:0 32 0] [16 0] 0 0
s 27.919641288 _1_ RTR  --- 44 ack 60 [0 0 0 0] ------- [1:0 0:0 32 0] [16 0] 0 0
r 27.921646944 _0_ AGT  --- 41 ack 60 [13a 0 1 800] ------- [1:0 0:0 32 0] [15 0] 1 0
s 27.921646944 _0_ AGT  --- 45 tcp 1040 [0 0 0 0] ------- [0:0 1:0 32 0] [20 0] 0 0
r 27.921646944 _0_ RTR  --- 45 tcp 1040 [0 0 0 0] ------- [0:0 1:0 32 0] [20 0] 0 0
s 27.921646944 _0_ RTR  --- 45 tcp 1060 [0 0 0 0] ------- [0:0 1:0 32 1] [20 0] 0 0
r 27.923713152 _0_ AGT  --- 44 ack 60 [13a 0 1 800] ------- [1:0 0:0 32 0] [16 0] 1 0
s 27.923713152 _0_ AGT  --- 46 tcp 1040 [0 0 0 0] ------- [0:0 1:0 32 0] [21 0] 0 0
r 27.923713152 _0_ RTR  --- 46 tcp 1040 [0 0 0 0] ------- [0:0 1:0 32 0] [21 0] 0 0
s 27.923713152 _0_ RTR  --- 46 tcp 1060 [0 0 0 0] ------- [0:0 1:0 32 1] [21 0] 0 0
r 27.933718808 _1_ AGT  --- 39 tcp 1060 [13a 1 0 800] ------- [0:0 1:0 32 1] [17 0] 1 0
s 27.933718808 _1_ AGT  --- 47 ack 40 [0 0 0 0] ------- [1:0 0:0 32 0] [17 0] 0 0
r 27.933718808 _1_ RTR  --- 47 ack 40 [0 0 0 0] ------- [1:0 0:0 32 0] [17 0] 0 0
s 27.933718808 _1_ RTR  --- 47 ack 60 [0 0 0 0] ------- [1:0 0:0 32 0] [17 0] 0 0
r 27.943905013 _1_ AGT  --- 42 tcp 1060 [13a 1 0 800] ------- [0:0 1:0 32 1] [18 0] 1 0
s 27.943905013 _1_ AGT  --- 48 ack 40 [0 0 0 0] ------- [1:0 0:0 32 0] [18 0] 0 0
r 27.943905013 _1_ RTR  --- 48 ack 40 [0 0 0 0] ------- [1:0 0:0 32 0] [18 0] 0 0
s 27.943905013 _1_ RTR  --- 48 ack 60 [0 0 0 0] ------- [1:0 0:0 32 0] [18 0] 0 0
r 27.945950666 _0_ AGT  --- 47 ack 60 [13a 0 1 800] ------- [1:0 0:0 32 0] [17 0] 1 0
s 27.945950666 _0_ AGT  --- 49 tcp 1040 [0 0 0 0] ------- [0:0 1:0 32 0] [22 0] 0 0
r 27.945950666 _0_ RTR  --- 49 tcp 1040 [0 0 0 0] ------- [0:0 1:0 32 0] [22 0] 0 0
s 27.945950666 _0_ RTR  --- 49 tcp 1060 [0 0 0 0] ------- [0:0 1:0 32 1] [22 0] 0 0
s 27.945950666 _0_ AGT  --- 50 tcp 1040 [0 0 0 0] ------- [0:0 1:0 32 0] [23 0] 0 0
r 27.945950666 _0_ RTR  --- 50 tcp 1040 [0 0 0 0] ------- [0:0 1:0 32 0] [23 0] 0 0
s 27.945950666 _0_ RTR  --- 50 tcp 1060 [0 0 0 0] ------- [0:0 1:0 32 1] [23 0] 0 0
r 27.955956318 _1_ AGT  --- 43 tcp 1060 [13a 1 0 800] ------- [0:0 1:0 32 1] [19 0] 1 0
s 27.955956318 _1_ AGT  --- 51 ack 40 [0 0 0 0] ------- [1:0 0:0 32 0] [19 0] 0 0
r 27.955956318 _1_ RTR  --- 51 ack 40 [0 0 0 0] ------- [1:0 0:0 32 0] [19 0] 0 0
s 27.955956318 _1_ RTR  --- 51 ack 60 [0 0 0 0] ------- [1:0 0:0 32 0] [19 0] 0 0
r 27.958281969 _0_ AGT  --- 48 ack 60 [13a 0 1 800] ------- [1:0 0:0 32 0] [18 0] 1 0
s 27.958281969 _0_ AGT  --- 52 tcp 1040 [0 0 0 0] ------- [0:0 1:0 32 0] [24 0] 0 0
r 27.958281969 _0_ RTR  --- 52 tcp 1040 [0 0 0 0] ------- [0:0 1:0 32 0] [24 0] 0 0
s 27.958281969 _0_ RTR  --- 52 tcp 1060 [0 0 0 0] ------- [0:0 1:0 32 1] [24 0] 0 0
r 27.960388170 _0_ AGT  --- 51 ack 60 [13a 0 1 800] ------- [1:0 0:0 32 0] [19 0] 1 0
s 27.960388170 _0_ AGT  --- 53 tcp 1040 [0 0 0 0] ------- [0:0 1:0 32 0] [25 0] 0 0
r 27.960388170 _0_ RTR  --- 53 tcp 1040 [0 0 0 0] ------- [0:0 1:0 32 0] [25 0] 0 0
s 27.960388170 _0_ RTR  --- 53 tcp 1060 [0 0 0 0] ------- [0:0 1:0 32 1] [25 0] 0 0
r 27.970533820 _1_ AGT  --- 45 tcp 1060 [13a 1 0 800] ------- [0:0 1:0 32 1] [20 0] 1 0
s 27.970533820 _1_ AGT  --- 54 ack 40 [0 0 0 0] ------- [1:0 0:0 32 0] [20 0] 0 0
r 27.970533820 _1_ RTR  --- 54 ack 40 [0 0 0 0] ------- [1:0 0:0 32 0] [20 0] 0 0
s 27.970533820 _1_ RTR  --- 54 ack 60 [0 0 0 0] ------- [1:0 0:0 32 0] [20 0] 0 0
r 27.980640018 _1_ AGT  --- 46 tcp 1060 [13a 1 0 800] ------- [0:0 1:0 32 1] [21 0] 1 0
s 27.980640018 _1_ AGT  --- 55 ack 40 [0 0 0 0] ------- [1:0 0:0 32 0] [21 0] 0 0
r 27.980640018 _1_ RTR  --- 55 ack 40 [0 0 0 0] ------- [1:0 0:0 32 0] [21 0] 0 0
s 27.980640018 _1_ RTR  --- 55 ack 60 [0 0 0 0] ------- [1:0 0:0 32 0] [21 0] 0 0
r 27.983085666 _0_ AGT  --- 54 ack 60 [13a 0 1 800] ------- [1:0 0:0 32 0] [20 0] 1 0
s 27.983085666 _0_ AGT  --- 56 tcp 1040 [0 0 0 0] ------- [0:0 1:0 32 0] [26 0] 0 0
r 27.983085666 _0_ RTR  --- 56 tcp 1040 [0 0 0 0] ------- [0:0 1:0 32 0] [26 0] 0 0
s 27.983085666 _0_ RTR  --- 56 tcp 1060 [0 0 0 0] ------- [0:0 1:0 32 1] [26 0] 0 0
r 27.993231313 _1_ AGT  --- 49 tcp 1060 [13a 1 0 800] ------- [0:0 1:0 32 1] [22 0] 1 0
s 27.993231313 _1_ AGT  --- 57 ack 40 [0 0 0 0] ------- [1:0 0:0 32 0] [22 0] 0 0
r 27.993231313 _1_ RTR  --- 57 ack 40 [0 0 0 0] ------- [1:0 0:0 32 0] [22 0] 0 0
s 27.993231313 _1_ RTR  --- 57 ack 60 [0 0 0 0] ------- [1:0 0:0 32 0] [22 0] 0 0
r 27.995516958 _0_ AGT  --- 55 ack 60 [13a 0 1 800] ------- [1:0 0:0 32 0] [21 0] 1 0
s 27.995516958 _0_ AGT  --- 58 tcp 1040 [0 0 0 0] ------- [0:0 1:0 32 0] [27 0] 0 0
r 27.995516958 _0_ RTR  --- 58 tcp 1040 [0 0 0 0] ------- [0:0 1:0 32 0] [27 0] 0 0
s 27.995516958 _0_ RTR  --- 58 tcp 1060 [0 0 0 0] ------- [0:0 1:0 32 1] [27 0] 0 0
r 28.005762603 _1_ AGT  --- 50 tcp 1060 [13a 1 0 800] ------- [0:0 1:0 32 1] [23 0] 1 0
s 28.005762603 _1_ AGT  --- 59 ack 40 [0 0 0 0] ------- [1:0 0:0 32 0] [23 0] 0 0
r 28.005762603 _1_ RTR  --- 59 ack 40 [0 0 0 0] ------- [1:0 0:0 32 0] [23 0] 0 0
s 28.005762603 _1_ RTR  --- 59 ack 60 [0 0 0 0] ------- [1:0 0:0 32 0] [23 0] 0 0
r 28.007808247 _0_ AGT  --- 57 ack 60 [13a 0 1 800] ------- [1:0 0:0 32 0] [22 0] 1 0
s 28.007808247 _0_ AGT  --- 60 tcp 1040 [0 0 0 0] ------- [0:0 1:0 32 0] [28 0] 0 0
r 28.007808247 _0_ RTR  --- 60 tcp 1040 [0 0 0 0] ------- [0:0 1:0 32 0] [28 0] 0 0
s 28.007808247 _0_ RTR  --- 60 tcp 1060 [0 0 0 0] ------- [0:0 1:0 32 1] [28 0] 0 0
r 28.018053890 _1_ AGT  --- 52 tcp 1060 [13a 1 0 800] ------- [0:0 1:0 32 1] [24 0] 1 0
s 28.018053890 _1_ AGT  --- 61 ack 40 [0 0 0 0] ------- [1:0 0:0 32 0] [24 0] 0 0
r 28.018053890 _1_ RTR  --- 61 ack 40 [0 0 0 0] ------- [1:0 0:0 32 0] [24 0] 0 0
s 28.018053890 _1_ RTR  --- 61 ack 60 [0 0 0 0] ------- [1:0 0:0 32 0] [24 0] 0 0
r 28.020099532 _0_ AGT  --- 59 ack 60 [13a 0 1 800] ------- [1:0 0:0 32 0] [23 0] 1 0
s 28.020099532 _0_ AGT  --- 62 tcp 1040 [0 0 0 0] ------- [0:0 1:0 32 0] [29 0] 0 0
r 28.020099532 _0_ RTR  --- 62 tcp 1040 [0 0 0 0] ------- [0:0 1:0 32 0] [29 0] 0 0
s 28.020099532 _0_ RTR  --- 62 tcp 1060 [0 0 0 0] ------- [0:0 1:0 32 1] [29 0] 0 0
s 28.020099532 _0_ AGT  --- 63 tcp 1040 [0 0 0 0] ------- [0:0 1:0 32 0] [30 0] 0 0
r 28.020099532 _0_ RTR  --- 63 tcp 1040 [0 0 0 0] ------- [0:0 1:0 32 0] [30 0] 0 0
s 28.020099532 _0_ RTR  --- 63 tcp 1060 [0 0 0 0] ------- [0:0 1:0 32 1] [30 0] 0 0
r 28.022125721 _0_ AGT  --- 61 ack 60 [13a 0 1 800] ------- [1:0 0:0 32 0] [24 0] 1 0
s 28.022125721 _0_ AGT  --- 64 tcp 1040 [0 0 0 0] ------- [0:0 1:0 32 0] [31 0] 0 0
r 28.022125721 _0_ RTR  --- 64 tcp 1040 [0 0 0 0] ------- [0:0 1:0 32 0] [31 0] 0 0
s 28.022125721 _0_ RTR  --- 64 tcp 1060 [0 0 0 0] ------- [0:0 1:0 32 1] [31 0] 0 0
r 28.032371362 _1_ AGT  --- 53 tcp 1060 [13a 1 0 800] ------- [0:0 1:0 32 1] [25 0] 1 0
s 28.032371362 _1_ AGT  --- 65 ack 40 [0 0 0 0] ------- [1:0 0:0 32 0] [25 0] 0 0
r 28.032371362 _1_ RTR  --- 65 ack 40 [0 0 0 0] ------- [1:0 0:0 32 0] [25 0] 0 0
s 28.032371362 _1_ RTR  --- 65 ack 60 [0 0 0 0] ------- [1:0 0:0 32 0] [25 0] 0 0
r 28.042577549 _1_ AGT  --- 56 tcp 1060 [13a 1 0 800] ------- [0:0 1:0 32 1] [26 0] 1 0
s 28.042577549 _1_ AGT  --- 66 ack 40 [0 0 0 0] ------- [1:0 0:0 32 0] [26 0] 0 0
r 28.042577549 _1_ RTR  --- 66 ack 40 [0 0 0 0] ------- [1:0 0:0 32 0] [26 0] 0 0
s 28.042577549 _1_ RTR  --- 66 ack 60 [0 0 0 0] ------- [1:0 0:0 32 0] [26 0] 0 0
r 28.044683187 _0_ AGT  --- 65 ack 60 [13a 0 1 800] ------- [1:0 0:0 32 0] [25 0] 1 0
s 28.044683187 _0_ AGT  --- 67 tcp 1040 [0 0 0 0] ------- [0:0 1:0 32 0] [32 0] 0 0
r 28.044683187 _0_ RTR  --- 67 tcp 1040 [0 0 0 0] ------- [0:0 1:0 32 0] [32 0] 0 0
s 28.044683187 _0_ RTR  --- 67 tcp 1060 [0 0 0 0] ------- [0:0 1:0 32 1] [32 0] 0 0
r 28.054748825 _1_ AGT  --- 58 tcp 1060 [13a 1 0 800] ------- [0:0 1:0 32 1] [27 0] 1 0
s 28.054748825 _1_ AGT  --- 68 ack 40 [0 0 0 0] ------- [1:0 0:0 32 0] [27 0] 0 0
r 28.054748825 _1_ RTR  --- 68 ack 40 [0 0 0 0] ------- [1:0 0:0 32 0] [27 0] 0 0
s 28.054748825 _1_ RTR  --- 68 ack 60 [0 0 0 0] ------- [1:0 0:0 32 0] [27 0] 0 0
r 28.056834462 _0_ AGT  --- 66 ack 60 [13a 0 1 800] ------- [1:0 0:0 32 0] [26 0] 1 0
s 28.056834462 _0_ AGT  --- 69 tcp 1040 [0 0 0 0] ------- [0:0 1:0 32 0] [33 0] 0 0
r 28.056834462 _0_ RTR  --- 69 tcp 1040 [0 0 0 0] ------- [0:0 1:0 32 0] [33 0] 0 0
s 28.056834462 _0_ RTR  --- 69 tcp 1060 [0 0 0 0] ------- [0:0 1:0 32 1] [33 0] 0 0
r 28.067180098 _1_ AGT  --- 60 tcp 1060 [13a 1 0 800] ------- [0:0 1:0 32 1] [28 0] 1 0
s 28.067180098 _1_ AGT  --- 70 ack 40 [0 0 0 0] ------- [1:0 0:0 32 0] [28 0] 0 0
r 28.067180098 _1_ RTR  --- 70 ack 40 [0 0 0 0] ------- [1:0 0:0 32 0] [28 0] 0 0
s 28.067180098 _1_ RTR  --- 70 ack 60 [0 0 0 0] ------- [1:0 0:0 32 0] [28 0] 0 0
r 28.069225733 _0_ AGT  --- 68 ack 60 [13a 0 1 800] ------- [1:0 0:0 32 0] [27 0] 1 0
s 28.069225733 _0_ AGT  --- 71 tcp 1040 [0 0 0 0] ------- [0:0 1:0 32 0] [34 0] 0 0
r 28.069225733 _0_ RTR  --- 71 tcp 1040 [0 0 0 0] ------- [0:0 1:0 32 0] [34 0] 0 0
s 28.069225733 _0_ RTR  --- 71 tcp 1060 [0 0 0 0] ------- [0:0 1:0 32 1] [34 0] 0 0
r 28.079291367 _1_ AGT  --- 62 tcp 1060 [13a 1 0 800] ------- [0:0 1:0 32 1] [29 0] 1 0
s 28.079291367 _1_ AGT  --- 72 ack 40 [0 0 0 0] ------- [1:0 0:0 32 0] [29 0] 0 0
r 28.079291367 _1_ RTR  --- 72 ack 40 [0 0 0 0] ------- [1:0 0:0 32 0] [29 0] 0 0
s 28.079291367 _1_ RTR  --- 72 ack 60 [0 0 0 0] ------- [1:0 0:0 32 0] [29 0] 0 0
r 28.081377000 _0_ AGT  --- 70 ack 60 [13a 0 1 800] ------- [1:0 0:0 32 0] [28 0] 1 0
s 28.081377000 _0_ AGT  --- 73 tcp 1040 [0 0 0 0] ------- [0:0 1:0 32 0] [35 0] 0 0
r 28.081377000 _0_ RTR  --- 73 tcp 1040 [0 0 0 0] ------- [0:0 1:0 32 0] [35 0] 0 0
s 28.081377000 _0_ RTR  --- 73 tcp 1060 [0 0 0 0] ------- [0:0 1:0 32 1] [35 0] 0 0
r 28.083363177 _0_ AGT  --- 72 ack 60 [13a 0 1 800] ------- [1:0 0:0 32 0] [29 0] 1 0
s 28.083363177 _0_ AGT  --- 74 tcp 1040 [0 0 0 0] ------- [0:0 1:0 32 0] [36 0] 0 0
r 28.083363177 _0_ RTR  --- 74 tcp 1040 [0 0 0 0] ------- [0:0 1:0 32 0] [36 0] 0 0
s 28.083363177 _0_ RTR  --- 74 tcp 1060 [0 0 0 0] ------- [0:0 1:0 32 1] [36 0] 0 0
r 28.093488809 _1_ AGT  --- 63 tcp 1060 [13a 1 0 800] ------- [0:0 1:0 32 1] [30 0] 1 0
s 28.093488809 _1_ AGT  --- 75 ack 40 [0 0 0 0] ------- [1:0 0:0 32 0] [30 0] 0 0
r 28.093488809 _1_ RTR  --- 75 ack 40 [0 0 0 0] ------- [1:0 0:0 32 0] [30 0] 0 0
s 28.093488809 _1_ RTR  --- 75 ack 60 [0 0 0 0] ------- [1:0 0:0 32 0] [30 0] 0 0
r 28.095494440 _0_ AGT  --- 75 ack 60 [13a 0 1 800] ------- [1:0 0:0 32 0] [30 0] 1 0
s 28.095494440 _0_ AGT  --- 76 tcp 1040 [0 0 0 0] ------- [0:0 1:0 32 0] [37 0] 0 0
r 28.095494440 _0_ RTR  --- 76 tcp 1040 [0 0 0 0] ------- [0:0 1:0 32 0] [37 0] 0 0
s 28.095494440 _0_ RTR  --- 76 tcp 1060 [0 0 0 0] ------- [0:0 1:0 32 1] [37 0] 0 0
r 28.105840071 _1_ AGT  --- 64 tcp 1060 [13a 1 0 800] ------- [0:0 1:0 32 1] [31 0] 1 0
s 28.105840071 _1_ AGT  --- 77 ack 40 [0 0 0 0] ------- [1:0 0:0 32 0] [31 0] 0 0
r 28.105840071 _1_ RTR  --- 77 ack 40 [0 0 0 0] ------- [1:0 0:0 32 0] [31 0] 0 0
s 28.105840071 _1_ RTR  --- 77 ack 60 [0 0 0 0] ------- [1:0 0:0 32 0] [31 0] 0 0
r 28.108245700 _0_ AGT  --- 77 ack 60 [13a 0 1 800] ------- [1:0 0:0 32 0] [31 0] 1 0
s 28.108245700 _0_ AGT  --- 78 tcp 1040 [0 0 0 0] ------- [0:0 1:0 32 0] [38 0] 0 0
r 28.108245700 _0_ RTR  --- 78 tcp 1040 [0 0 0 0] ------- [0:0 1:0 32 0] [38 0] 0 0
s 28.108245700 _0_ RTR  --- 78 tcp 1060 [0 0 0 0] ------- [0:0 1:0 32 1] [38 0] 0 0
s 28.108245700 _0_ AGT  --- 79 tcp 1040 [0 0 0 0] ------- [0:0 1:0 32 0] [39 0] 0 0
r 28.108245700 _0_ RTR  --- 79 tcp 1040 [0 0 0 0] ------- [0:0 1:0 32 0] [39 0] 0 0
s 28.108245700 _0_ RTR  --- 79 tcp 1060 [0 0 0 0] ------- [0:0 1:0 32 1] [39 0] 0 0
r 28.118331329 _1_ AGT  --- 67 tcp 1060 [13a 1 0 800] ------- [0:0 1:0 32 1] [32 0] 1 0
s 28.118331329 _1_ AGT  --- 80 ack 40 [0 0 0 0] ------- [1:0 0:0 32 0] [32 0] 0 0
r 28.118331329 _1_ RTR  --- 80 ack 40 [0 0 0 0] ------- [1:0 0:0 32 0] [32 0] 0 0
s 28.118331329 _1_ RTR  --- 80 ack 60 [0 0 0 0] ------- [1:0 0:0 32 0] [32 0] 0 0
r 28.128477499 _1_ AGT  --- 69 tcp 1060 [13a 1 0 800] ------- [0:0 1:0 32 1] [33 0] 1 0
s 28.128477499 _1_ AGT  --- 81 ack 40 [0 0 0 0] ------- [1:0 0:0 32 0] [33 0] 0 0
r 28.128477499 _1_ RTR  --- 81 ack 40 [0 0 0 0] ------- [1:0 0:0 32 0] [33 0] 0 0
s 28.128477499 _1_ RTR  --- 81 ack 60 [0 0 0 0] ------- [1:0 0:0 32 0] [33 0] 0 0
r 28.138483667 _1_ AGT  --- 71 tcp 1060 [13a 1 0 800] ------- [0:0 1:0 32 1] [34 0] 1 0
s 28.138483667 _1_ AGT  --- 82 ack 40 [0 0 0 0] ------- [1:0 0:0 32 0] [34 0] 0 0
r 28.138483667 _1_ RTR  --- 82 ack 40 [0 0 0 0] ------- [1:0 0:0 32 0] [34 0] 0 0
s 28.138483667 _1_ RTR  --- 82 ack 60 [0 0 0 0] ------- [1:0 0:0 32 0] [34 0] 0 0
r 28.140529291 _0_ AGT  --- 80 ack 60 [13a 0 1 800] ------- [1:0 0:0 32 0] [32 0] 1 0
s 28.140529291 _0_ AGT  --- 83 tcp 1040 [0 0 0 0] ------- [0:0 1:0 32 0] [40 0] 0 0
r 28.140529291 _0_ RTR  --- 83 tcp 1040 [0 0 0 0] ------- [0:0 1:0 32 0] [40 0] 0 0
s 28.140529291 _0_ RTR  --- 83 tcp 1060 [0 0 0 0] ------- [0:0 1:0 32 1] [40 0] 0 0
r 28.142615457 _0_ AGT  --- 81 ack 60 [13a 0 1 800] ------- [1:0 0:0 32 0] [33 0] 1 0
s 28.142615457 _0_ AGT  --- 84 tcp 1040 [0 0 0 0] ------- [0:0 1:0 32 0] [41 0] 0 0
r 28.142615457 _0_ RTR  --- 84 tcp 1040 [0 0 0 0] ------- [0:0 1:0 32 0] [41 0] 0 0
s 28.142615457 _0_ RTR  --- 84 tcp 1060 [0 0 0 0] ------- [0:0 1:0 32 1] [41 0] 0 0
r 28.144601622 _0_ AGT  --- 82 ack 60 [13a 0 1 800] ------- [1:0 0:0 32 0] [34 0] 1 0
s 28.144601622 _0_ AGT  --- 85 tcp 1040 [0 0 0 0] ------- [0:0 1:0 32 0] [42 0] 0 0
r 28.144601622 _0_ RTR  --- 85 tcp 1040 [0 0 0 0] ------- [0:0 1:0 32 0] [42 0] 0 0
s 28.144601622 _0_ RTR  --- 85 tcp 1060 [0 0 0 0] ------- [0:0 1:0 32 1] [42 0] 0 0
r 28.154707245 _1_ AGT  --- 73 tcp 1060 [13a 1 0 800] ------- [0:0 1:0 32 1] [35 0] 1 0
s 28.154707245 _1_ AGT  --- 86 ack 40 [0 0 0 0] ------- [1:0 0:0 32 0] [35 0] 0 0
r 28.154707245 _1_ RTR  --- 86 ack 40 [0 0 0 0] ------- [1:0 0:0 32 0] [35 0] 0 0
s 28.154707245 _1_ RTR  --- 86 ack 60 [0 0 0 0] ------- [1:0 0:0 32 0] [35 0] 0 0
r 28.157212867 _0_ AGT  --- 86 ack 60 [13a 0 1 800] ------- [1:0 0:0 32 0] [35 0] 1 0
s 28.157212867 _0_ AGT  --- 87 tcp 1040 [0 0 0 0] ------- [0:0 1:0 32 0] [43 0] 0 0
r 28.157212867 _0_ RTR  --- 87 tcp 1040 [0 0 0 0] ------- [0:0 1:0 32 0] [43 0] 0 0
s 28.157212867 _0_ RTR  --- 87 tcp 1060 [0 0 0 0] ------- [0:0 1:0 32 1] [43 0] 0 0
r 28.167298489 _1_ AGT  --- 74 tcp 1060 [13a 1 0 800] ------- [0:0 1:0 32 1] [36 0] 1 0
s 28.167298489 _1_ AGT  --- 88 ack 40 [0 0 0 0] ------- [1:0 0:0 32 0] [36 0] 0 0
r 28.167298489 _1_ RTR  --- 88 ack 40 [0 0 0 0] ------- [1:0 0:0 32 0] [36 0] 0 0
s 28.167298489 _1_ RTR  --- 88 ack 60 [0 0 0 0] ------- [1:0 0:0 32 0] [36 0] 0 0
r 28.177304649 _1_ AGT  --- 76 tcp 1060 [13a 1 0 800] ------- [0:0 1:0 32 1] [37 0] 1 0
s 28.177304649 _1_ AGT  --- 89 ack 40 [0 0 0 0] ------- [1:0 0:0 32 0] [37 0] 0 0
r 28.177304649 _1_ RTR  --- 89 ack 40 [0 0 0 0] ------- [1:0 0:0 32 0] [37 0] 0 0
s 28.177304649 _1_ RTR  --- 89 ack 60 [0 0 0 0] ------- [1:0 0:0 32 0] [37 0] 0 0
r 28.187310808 _1_ AGT  --- 78 tcp 1060 [13a 1 0 800] ------- [0:0 1:0 32 1] [38 0] 1 0
s 28.187310808 _1_ AGT  --- 90 ack 40 [0 0 0 0] ------- [1:0 0:0 32 0] [38 0] 0 0
r 28.187310808 _1_ RTR  --- 90 ack 40 [0 0 0 0] ------- [1:0 0:0 32 0] [38 0] 0 0
s 28.187310808 _1_ RTR  --- 90 ack 60 [0 0 0 0] ------- [1:0 0:0 32 0] [38 0] 0 0
r 28.197356964 _1_ AGT  --- 79 tcp 1060 [13a 1 0 800] ------- [0:0 1:0 32 1] [39 0] 1 0
s 28.197356964 _1_ AGT  --- 91 ack 40 [0 0 0 0] ------- [1:0 0:0 32 0] [39 0] 0 0
r 28.197356964 _1_ RTR  --- 91 ack 40 [0 0 0 0] ------- [1:0 0:0 32 0] [39 0] 0 0
s 28.197356964 _1_ RTR  --- 91 ack 60 [0 0 0 0] ------- [1:0 0:0 32 0] [39 0] 0 0
r 28.199582580 _0_ AGT  --- 88 ack 60 [13a 0 1 800] ------- [1:0 0:0 32 0] [36 0] 1 0
s 28.199582580 _0_ AGT  --- 92 tcp 1040 [0 0 0 0] ------- [0:0 1:0 32 0] [44 0] 0 0
r 28.199582580 _0_ RTR  --- 92 tcp 1040 [0 0 0 0] ------- [0:0 1:0 32 0] [44 0] 0 0
s 28.199582580 _0_ RTR  --- 92 tcp 1060 [0 0 0 0] ------- [0:0 1:0 32 1] [44 0] 0 0
r 28.201588735 _0_ AGT  --- 89 ack 60 [13a 0 1 800] ------- [1:0 0:0 32 0] [37 0] 1 0
s 28.201588735 _0_ AGT  --- 93 tcp 1040 [0 0 0 0] ------- [0:0 1:0 32 0] [45 0] 0 0
r 28.201588735 _0_ RTR  --- 93 tcp 1040 [0 0 0 0] ------- [0:0 1:0 32 0] [45 0] 0 0
s 28.201588735 _0_ RTR  --- 93 tcp 1060 [0 0 0 0] ------- [0:0 1:0 32 1] [45 0] 0 0
r 28.211594350 _1_ AGT  --- 83 tcp 1060 [13a 1 0 800] ------- [0:0 1:0 32 1] [40 0] 1 0
s 28.211594350 _1_ AGT  --- 94 ack 40 [0 0 0 0] ------- [1:0 0:0 32 0] [40 0] 0 0
r 28.211594350 _1_ RTR  --- 94 ack 40 [0 0 0 0] ------- [1:0 0:0 32 0] [40 0] 0 0
s 28.211594350 _1_ RTR  --- 94 ack 60 [0 0 0 0] ------- [1:0 0:0 32 0] [40 0] 0 0
r 28.213599964 _0_ AGT  --- 90 ack 60 [13a 0 1 800] ------- [1:0 0:0 32 0] [38 0] 1 0