s 0.032821055 _1_ RTR  --- 0 message 32 [0 0 0 0] ------- [1:255 -1:255 32 0] 
s 0.178591360 _2_ RTR  --- 1 message 32 [0 0 0 0] ------- [2:255 -1:255 32 0] 
s 1.113402886 _0_ RTR  --- 2 message 32 [0 0 0 0] ------- [0:255 -1:255 32 0] 
M 10.00000 0 (5.00, 5.00, 0.00), (20.00, 20.00), 1.00
s 10.000000000 _0_ AGT  --- 3 tcp 40 [0 0 0 0] ------- [0:0 1:0 32 0] [0 0] 0 0
r 10.000000000 _0_ RTR  --- 3 tcp 40 [0 0 0 0] ------- [0:0 1:0 32 0] [0 0] 0 0
s 12.530838300 _0_ RTR  --- 4 message 32 [0 0 0 0] ------- [0:255 -1:255 32 0] 
s 13.000000000 _0_ AGT  --- 5 tcp 40 [0 0 0 0] ------- [0:0 1:0 32 0] [0 0] 0 0
r 13.000000000 _0_ RTR  --- 5 tcp 40 [0 0 0 0] ------- [0:0 1:0 32 0] [0 0] 0 0
s 13.830059915 _2_ RTR  --- 6 message 32 [0 0 0 0] ------- [2:255 -1:255 32 0] 
s 14.280428760 _1_ RTR  --- 7 message 32 [0 0 0 0] ------- [1:255 -1:255 32 0] 
s 19.000000000 _0_ AGT  --- 8 tcp 40 [0 0 0 0] ------- [0:0 1:0 32 0] [0 0] 0 0
r 19.000000000 _0_ RTR  --- 8 tcp 40 [0 0 0 0] ------- [0:0 1:0 32 0] [0 0] 0 0
M 20.00000 1 (400.00, 400.00, 0.00), (50.00, 40.00), 5.00
s 25.369352037 _0_ RTR  --- 9 message 32 [0 0 0 0] ------- [0:255 -1:255 32 0] 
s 26.386541965 _2_ RTR  --- 10 message 32 [0 0 0 0] ------- [2:255 -1:255 32 0] 
s 27.274269018 _1_ RTR  --- 11 message 32 [0 0 0 0] ------- [1:255 -1:255 32 0] 
M 30.00000 2 (100.00, 450.00, 0.00), (200.00, 400.00), 20.00
s 31.000000000 _0_ AGT  --- 12 tcp 40 [0 0 0 0] ------- [0:0 1:0 32 0] [0 0] 0 0
r 31.000000000 _0_ RTR  --- 12 tcp 40 [0 0 0 0] ------- [0:0 1:0 32 0] [0 0] 0 0
s 37.434764407 _0_ RTR  --- 13 message 32 [0 0 0 0] ------- [0:255 -1:255 32 0] 
s 40.039063347 _1_ RTR  --- 14 message 32 [0 0 0 0] ------- [1:255 -1:255 32 0] 
r 40.040383843 _2_ RTR  --- 14 message 32 [0 ffffffff 1 800] ------- [1:255 -1:255 32 0] 
s 40.494824313 _2_ RTR  --- 15 message 32 [0 0 0 0] ------- [2:255 -1:255 32 0] 
r 40.496124806 _1_ RTR  --- 15 message 32 [0 ffffffff 2 800] ------- [2:255 -1:255 32 0] 
s 52.026622644 _0_ RTR  --- 16 message 32 [0 0 0 0] ------- [0:255 -1:255 32 0] 
s 52.040659418 _2_ RTR  --- 17 message 32 [0 0 0 0] ------- [2:255 -1:255 32 0] 
r 52.041779901 _1_ RTR  --- 17 message 32 [0 ffffffff 2 800] ------- [2:255 -1:255 32 0] 
s 52.503974677 _1_ RTR  --- 18 message 32 [0 0 0 0] ------- [1:255 -1:255 32 0] 
r 52.505095161 _2_ RTR  --- 18 message 32 [0 ffffffff 1 800] ------- [1:255 -1:255 32 0] 
s 52.703931936 _2_ RTR  --- 19 message 44 [0 0 0 0] ------- [2:255 -1:255 32 0] 
r 52.705088421 _1_ RTR  --- 19 message 44 [0 ffffffff 2 800] ------- [2:255 -1:255 32 0] 
s 53.521221537 _1_ RTR  --- 20 message 32 [0 0 0 0] ------- [1:255 -1:255 32 0] 
r 53.522502024 _2_ RTR  --- 20 message 32 [0 ffffffff 1 800] ------- [1:255 -1:255 32 0] 
s 55.000000000 _0_ AGT  --- 21 tcp 40 [0 0 0 0] ------- [0:0 1:0 32 0] [0 0] 0 0
r 55.000000000 _0_ RTR  --- 21 tcp 40 [0 0 0 0] ------- [0:0 1:0 32 0] [0 0] 0 0
s 64.255025625 _0_ RTR  --- 22 message 32 [0 0 0 0] ------- [0:255 -1:255 32 0] 
s 66.566023329 _2_ RTR  --- 23 message 44 [0 0 0 0] ------- [2:255 -1:255 32 0] 
r 66.567279899 _1_ RTR  --- 23 message 44 [0 ffffffff 2 800] ------- [2:255 -1:255 32 0] 
s 66.620125481 _1_ RTR  --- 24 message 32 [0 0 0 0] ------- [1:255 -1:255 32 0] 
r 66.621526052 _2_ RTR  --- 24 message 32 [0 ffffffff 1 800] ------- [1:255 -1:255 32 0] 
s 78.261872448 _0_ RTR  --- 25 message 32 [0 0 0 0] ------- [0:255 -1:255 32 0] 
r 78.263233269 _1_ RTR  --- 25 message 32 [0 ffffffff 0 800] ------- [0:255 -1:255 32 0] 
s 80.625166225 _1_ RTR  --- 26 message 44 [0 0 0 0] ------- [1:255 -1:255 32 0] 
r 80.626422951 _2_ RTR  --- 26 message 44 [0 ffffffff 1 800] ------- [1:255 -1:255 32 0] 
r 80.626423006 _0_ RTR  --- 26 message 44 [0 ffffffff 1 800] ------- [1:255 -1:255 32 0] 
s 80.626423006 _0_ RTR  --- 3 tcp 80 [0 0 0 0] ------- [0:0 1:0 32 1] [0 0] 0 0
s 80.626423006 _0_ RTR  --- 5 tcp 80 [0 0 0 0] ------- [0:0 1:0 32 1] [0 0] 0 0
D 80.626423006 _0_ IFQ  ARP 3 tcp 80 [0 0 0 800] ------- [0:0 1:0 32 1] [0 0] 0 0
s 80.626423006 _0_ RTR  --- 8 tcp 80 [0 0 0 0] ------- [0:0 1:0 32 1] [0 0] 0 0
D 80.626423006 _0_ IFQ  ARP 5 tcp 80 [0 0 0 800] ------- [0:0 1:0 32 1] [0 0] 0 0
s 80.626423006 _0_ RTR  --- 12 tcp 80 [0 0 0 0] ------- [0:0 1:0 32 1] [0 0] 0 0
D 80.626423006 _0_ RTR  CBK 8 tcp 80 [0 0 0 800] ------- [0:0 1:0 32 1] [0 0] 0 0
D 80.626423006 _0_ RTR  CBK 12 tcp 80 [0 0 0 800] ------- [0:0 1:0 32 1] [0 0] 0 0
s 80.626423006 _0_ RTR  --- 21 tcp 80 [0 0 0 0] ------- [0:0 1:0 32 1] [0 0] 0 0
r 80.637955722 _1_ AGT  --- 21 tcp 80 [13a 1 0 800] ------- [0:0 1:0 32 1] [0 0] 1 0
s 80.637955722 _1_ AGT  --- 27 ack 40 [0 0 0 0] ------- [1:0 0:0 32 0] [0 0] 0 0
r 80.637955722 _1_ RTR  --- 27 ack 40 [0 0 0 0] ------- [1:0 0:0 32 0] [0 0] 0 0
s 80.637955722 _1_ RTR  --- 27 ack 60 [0 0 0 0] ------- [1:0 0:0 32 0] [0 0] 0 0
r 80.641913188 _0_ AGT  --- 27 ack 60 [13a 0 1 800] ------- [1:0 0:0 32 0] [0 0] 1 0
s 80.641913188 _0_ AGT  --- 28 tcp 1040 [0 0 0 0] ------- [0:0 1:0 32 0] [1 0] 0 0
r 80.641913188 _0_ RTR  --- 28 tcp 1040 [0 0 0 0] ------- [0:0 1:0 32 0] [1 0] 0 0
s 80.641913188 _0_ RTR  --- 28 tcp 1060 [0 0 0 0] ------- [0:0 1:0 32 1] [1 0] 0 0
r 80.652259531 _1_ AGT  --- 28 tcp 1060 [13a 1 0 800] ------- [0:0 1:0 32 1] [1 0] 1 0
s 80.652259531 _1_ AGT  --- 29 ack 40 [0 0 0 0] ------- [1:0 0:0 32 0] [1 0] 0 0
r 80.652259531 _1_ RTR  --- 29 ack 40 [0 0 0 0] ------- [1:0 0:0 32 0] [1 0] 0 0
s 80.652259531 _1_ RTR  --- 29 ack 60 [0 0 0 0] ------- [1:0 0:0 32 0] [1 0] 0 0
r 80.654665873 _0_ AGT  --- 29 ack 60 [13a 0 1 800] ------- [1:0 0:0 32 0] [1 0] 1 0
s 80.654665873 _0_ AGT  --- 30 tcp 1040 [0 0 0 0] ------- [0:0 1:0 32 0] [2 0] 0 0
r 80.654665873 _0_ RTR  --- 30 tcp 1040 [0 0 0 0] ------- [0:0 1:0 32 0] [2 0] 0 0
s 80.654665873 _0_ RTR  --- 30 tcp 1060 [0 0 0 0] ------- [0:0 1:0 32 1] [2 0] 0 0
s 80.654665873 _0_ AGT  --- 31 tcp 1040 [0 0 0 0] ------- [0:0 1:0 32 0] [3 0] 0 0
r 80.654665873 _0_ RTR  --- 31 tcp 1040 [0 0 0 0] ------- [0:0 1:0 32 0] [3 0] 0 0
s 80.654665873 _0_ RTR  --- 31 tcp 1060 [0 0 0 0] ------- [0:0 1:0 32 1] [3 0] 0 0
r 80.664752215 _1_ AGT  --- 30 tcp 1060 [13a 1 0 800] ------- [0:0 1:0 32 1] [2 0] 1 0
s 80.664752215 _1_ AGT  --- 32 ack 40 [0 0 0 0] ------- [1:0 0:0 32 0] [2 0] 0 0
r 80.664752215 _1_ RTR  --- 32 ack 40 [0 0 0 0] ------- [1:0 0:0 32 0] [2 0] 0 0
s 80.664752215 _1_ RTR  --- 32 ack 60 [0 0 0 0] ------- [1:0 0:0 32 0] [2 0] 0 0
r 80.674899336 _1_ AGT  --- 31 tcp 1060 [13a 1 0 800] ------- [0:0 1:0 32 1] [3 0] 1 0
s 80.674899336 _1_ AGT  --- 33 ack 40 [0 0 0 0] ------- [1:0 0:0 32 0] [3 0] 0 0
r 80.674899336 _1_ RTR  --- 33 ack 40 [0 0 0 0] ------- [1:0 0:0 32 0] [3 0] 0 0
s 80.674899336 _1_ RTR  --- 33 ack 60 [0 0 0 0] ------- [1:0 0:0 32 0] [3 0] 0 0
r 80.676965677 _0_ AGT  --- 32 ack 60 [13a 0 1 800] ------- [1:0 0:0 32 0] [2 0] 1 0
s 80.676965677 _0_ AGT  --- 34 tcp 1040 [0 0 0 0] ------- [0:0 1:0 32 0] [4 0] 0 0
r 80.676965677 _0_ RTR  --- 34 tcp 1040 [0 0 0 0] ------- [0:0 1:0 32 0] [4 0] 0 0
s 80.676965677 _0_ RTR  --- 34 tcp 1060 [0 0 0 0] ------- [0:0 1:0 32 1] [4 0] 0 0
r 80.679052798 _0_ AGT  --- 33 ack 60 [13a 0 1 800] ------- [1:0 0:0 32 0] [3 0] 1 0
s 80.679052798 _0_ AGT  --- 35 tcp 1040 [0 0 0 0] ------- [0:0 1:0 32 0] [5 0] 0 0
r 80.679052798 _0_ RTR  --- 35 tcp 1040 [0 0 0 0] ------- [0:0 1:0 32 0] [5 0] 0 0
s 80.679052798 _0_ RTR  --- 35 tcp 1060 [0 0 0 0] ------- [0:0 1:0 32 1] [5 0] 0 0
r 80.689199139 _1_ AGT  --- 34 tcp 1060 [13a 1 0 800] ------- [0:0 1:0 32 1] [4 0] 1 0
s 80.689199139 _1_ AGT  --- 36 ack 40 [0 0 0 0] ------- [1:0 0:0 32 0] [4 0] 0 0
r 80.689199139 _1_ RTR  --- 36 ack 40 [0 0 0 0] ------- [1:0 0:0 32 0] [4 0] 0 0
s 80.689199139 _1_ RTR  --- 36 ack 60 [0 0 0 0] ------- [1:0 0:0 32 0] [4 0] 0 0
r 80.691245479 _0_ AGT  --- 36 ack 60 [13a 0 1 800] ------- [1:0 0:0 32 0] [4 0] 1 0
s 80.691245479 _0_ AGT  --- 37 tcp 1040 [0 0 0 0] ------- [0:0 1:0 32 0] [6 0] 0 0
r 80.691245479 _0_ RTR  --- 37 tcp 1040 [0 0 0 0] ------- [0:0 1:0 32 0] [6 0] 0 0
s 80.691245479 _0_ RTR  --- 37 tcp 1060 [0 0 0 0] ------- [0:0 1:0 32 1] [6 0] 0 0
s 80.691245479 _0_ AGT  --- 38 tcp 1040 [0 0 0 0] ------- [0:0 1:0 32 0] [7 0] 0 0
r 80.691245479 _0_ RTR  --- 38 tcp 1040 [0 0 0 0] ------- [0:0 1:0 32 0] [7 0] 0 0
s 80.691245479 _0_ RTR  --- 38 tcp 1060 [0 0 0 0] ------- [0:0 1:0 32 1] [7 0] 0 0
r 80.701711819 _1_ AGT  --- 35 tcp 1060 [13a 1 0 800] ------- [0:0 1:0 32 1] [5 0] 1 0
s 80.701711819 _1_ AGT  --- 39 ack 40 [0 0 0 0] ------- [1:0 0:0 32 0] [5 0] 0 0
r 80.701711819 _1_ RTR  --- 39 ack 40 [0 0 0 0] ------- [1:0 0:0 32 0] [5 0] 0 0
s 80.701711819 _1_ RTR  --- 39 ack 60 [0 0 0 0] ------- [1:0 0:0 32 0] [5 0] 0 0
r 80.703838159 _0_ AGT  --- 39 ack 60 [13a 0 1 800] ------- [1:0 0:0 32 0] [5 0] 1 0
s 80.703838159 _0_ AGT  --- 40 tcp 1040 [0 0 0 0] ------- [0:0 1:0 32 0] [8 0] 0 0
r 80.703838159 _0_ RTR  --- 40 tcp 1040 [0 0 0 0] ------- [0:0 1:0 32 0] [8 0] 0 0
s 80.703838159 _0_ RTR  --- 40 tcp 1060 [0 0 0 0] ------- [0:0 1:0 32 1] [8 0] 0 0
r 80.714124499 _1_ AGT  --- 37 tcp 1060 [13a 1 0 800] ------- [0:0 1:0 32 1] [6 0] 1 0
s 80.714124499 _1_ AGT  --- 41 ack 40 [0 0 0 0] ------- [1:0 0:0 32 0] [6 0] 0 0
r 80.714124499 _1_ RTR  --- 41 ack 40 [0 0 0 0] ------- [1:0 0:0 32 0] [6 0] 0 0
s 80.714124499 _1_ RTR  --- 41 ack 60 [0 0 0 0] ------- [1:0 0:0 32 0] [6 0] 0 0
r 80.716130837 _0_ AGT  --- 41 ack 60 [13a 0 1 800] ------- [1:0 0:0 32 0] [6 0] 1 0
s 80.716130837 _0_ AGT  --- 42 tcp 1040 [0 0 0 0] ------- [0:0 1:0 32 0] [9 0] 0 0
r 80.716130837 _0_ RTR  --- 42 tcp 1040 [0 0 0 0] ------- [0:0 1:0 32 0] [9 0] 0 0
s 80.716130837 _0_ RTR  --- 42 tcp 1060 [0 0 0 0] ------- [0:0 1:0 32 1] [9 0] 0 0
r 80.726177176 _1_ AGT  --- 38 tcp 1060 [13a 1 0 800] ------- [0:0 1:0 32 1] [7 0] 1 0
s 80.726177176 _1_ AGT  --- 43 ack 40 [0 0 0 0] ------- [1:0 0:0 32 0] [7 0] 0 0
r 80.726177176 _1_ RTR  --- 43 ack 40 [0 0 0 0] ------- [1:0 0:0 32 0] [7 0] 0 0
s 80.726177176 _1_ RTR  --- 43 ack 60 [0 0 0 0] ------- [1:0 0:0 32 0] [7 0] 0 0
r 80.736184294 _1_ AGT  --- 40 tcp 1060 [13a 1 0 800] ------- [0:0 1:0 32 1] [8 0] 1 0
s 80.736184294 _1_ AGT  --- 44 ack 40 [0 0 0 0] ------- [1:0 0:0 32 0] [8 0] 0 0
r 80.736184294 _1_ RTR  --- 44 ack 40 [0 0 0 0] ------- [1:0 0:0 32 0] [8 0] 0 0
s 80.736184294 _1_ RTR  --- 44 ack 60 [0 0 0 0] ------- [1:0 0:0 32 0] [8 0] 0 0
r 80.746191411 _1_ AGT  --- 42 tcp 1060 [13a 1 0 800] ------- [0:0 1:0 32 1] [9 0] 1 0
s 80.746191411 _1_ AGT  --- 45 ack 40 [0 0 0 0] ------- [1:0 0:0 32 0] [9 0] 0 0
r 80.746191411 _1_ RTR  --- 45 ack 40 [0 0 0 0] ------- [1:0 0:0 32 0] [9 0] 0 0
s 80.746191411 _1_ RTR  --- 45 ack 60 [0 0 0 0] ------- [1:0 0:0 32 0] [9 0] 0 0
r 80.748357749 _0_ AGT  --- 43 ack 60 [13a 0 1 800] ------- [1:0 0:0 32 0] [7 0] 1 0
s 80.748357749 _0_ AGT  --- 46 tcp 1040 [0 0 0 0] ------- [0:0 1:0 32 0] [10 0] 0 0
r 80.748357749 _0_ RTR  --- 46 tcp 1040 [0 0 0 0] ------- [0:0 1:0 32 0] [10 0] 0 0
s 80.748357749 _0_ RTR  --- 46 tcp 1060 [0 0 0 0] ------- [0:0 1:0 32 1] [10 0] 0 0
s 80.748357749 _0_ AGT  --- 47 tcp 1040 [0 0 0 0] ------- [0:0 1:0 32 0] [11 0] 0 0
r 80.748357749 _0_ RTR  --- 47 tcp 1040 [0 0 0 0] ------- [0:0 1:0 32 0] [11 0] 0 0
s 80.748357749 _0_ RTR  --- 47 tcp 1060 [0 0 0 0] ------- [0:0 1:0 32 1] [11 0] 0 0
r 80.758564086 _1_ AGT  --- 46 tcp 1060 [13a 1 0 800] ------- [0:0 1:0 32 1] [10 0] 1 0
s 80.758564086 _1_ AGT  --- 48 ack 40 [0 0 0 0] ------- [1:0 0:0 32 0] [10 0] 0 0
r 80.758564086 _1_ RTR  --- 48 ack 40 [0 0 0 0] ------- [1:0 0:0 32 0] [10 0] 0 0
s 80.758564086 _1_ RTR  --- 48 ack 60 [0 0 0 0] ------- [1:0 0:0 32 0] [10 0] 0 0
r 80.760790423 _0_ AGT  --- 44 ack 60 [13a 0 1 800] ------- [1:0 0:0 32 0] [8 0] 1 0
s 80.760790423 _0_ AGT  --- 49 tcp 1040 [0 0 0 0] ------- [0:0 1:0 32 0] [12 0] 0 0
r 80.760790423 _0_ RTR  --- 49 tcp 1040 [0 0 0 0] ------- [0:0 1:0 32 0] [12 0] 0 0
s 80.760790423 _0_ RTR  --- 49 tcp 1060 [0 0 0 0] ------- [0:0 1:0 32 1] [12 0] 0 0
r 80.770936759 _1_ AGT  --- 47 tcp 1060 [13a 1 0 800] ------- [0:0 1:0 32 1] [11 0] 1 0
s 80.770936759 _1_ AGT  --- 50 ack 40 [0 0 0 0] ------- [1:0 0:0 32 0] [11 0] 0 0
r 80.770936759 _1_ RTR  --- 50 ack 40 [0 0 0 0] ------- [1:0 0:0 32 0] [11 0] 0 0
s 80.770936759 _1_ RTR  --- 50 ack 60 [0 0 0 0] ------- [1:0 0:0 32 0] [11 0] 0 0
r 80.781243874 _1_ AGT  --- 49 tcp 1060 [13a 1 0 800] ------- [0:0 1:0 32 1] [12 0] 1 0
s 80.781243874 _1_ AGT  --- 51 ack 40 [0 0 0 0] ------- [1:0 0:0 32 0] [12 0] 0 0
r 80.781243874 _1_ RTR  --- 51 ack 40 [0 0 0 0] ------- [1:0 0:0 32 0] [12 0] 0 0
s 80.781243874 _1_ RTR  --- 51 ack 60 [0 0 0 0] ------- [1:0 0:0 32 0] [12 0] 0 0
r 80.783250210 _0_ AGT  --- 45 ack 60 [13a 0 1 800] ------- [1:0 0:0 32 0] [9 0] 1 0
s 80.783250210 _0_ AGT  --- 52 tcp 1040 [0 0 0 0] ------- [0:0 1:0 32 0] [13 0] 0 0
r 80.783250210 _0_ RTR  --- 52 tcp 1040 [0 0 0 0] ------- [0:0 1:0 32 0] [13 0] 0 0
s 80.783250210 _0_ RTR  --- 52 tcp 1060 [0 0 0 0] ------- [0:0 1:0 32 1] [13 0] 0 0
r 80.793416545 _1_ AGT  --- 52 tcp 1060 [13a 1 0 800] ------- [0:0 1:0 32 1] [13 0] 1 0
s 80.793416545 _1_ AGT  --- 53 ack 40 [0 0 0 0] ------- [1:0 0:0 32 0] [13 0] 0 0
r 80.793416545 _1_ RTR  --- 53 ack 40 [0 0 0 0] ------- [1:0 0:0 32 0] [13 0] 0 0
s 80.793416545 _1_ RTR  --- 53 ack 60 [0 0 0 0] ------- [1:0 0:0 32 0] [13 0] 0 0
r 80.795782880 _0_ AGT  --- 48 ack 60 [13a 0 1 800] ------- [1:0 0:0 32 0] [10 0] 1 0
s 80.795782880 _0_ AGT  --- 54 tcp 1040 [0 0 0 0] ------- [0:0 1:0 32 0] [14 0] 0 0
r 80.795782880 _0_ RTR  --- 54 tcp 1040 [0 0 0 0] ------- [0:0 1:0 32 0] [14 0] 0 0
s 80.795782880 _0_ RTR  --- 54 tcp 1060 [0 0 0 0] ------- [0:0 1:0 32 1] [14 0] 0 0
r 80.805909215 _1_ AGT  --- 54 tcp 1060 [13a 1 0 800] ------- [0:0 1:0 32 1] [14 0] 1 0
s 80.805909215 _1_ AGT  --- 55 ack 40 [0 0 0 0] ------- [1:0 0:0 32 0] [14 0] 0 0
r 80.805909215 _1_ RTR  --- 55 ack 40 [0 0 0 0] ------- [1:0 0:0 32 0] [14 0] 0 0
s 80.805909215 _1_ RTR  --- 55 ack 60 [0 0 0 0] ------- [1:0 0:0 32 0] [14 0] 0 0
r 80.808015549 _0_ AGT  --- 50 ack 60 [13a 0 1 800] ------- [1:0 0:0 32 0] [11 0] 1 0
s 80.808015549 _0_ AGT  --- 56 tcp 1040 [0 0 0 0] ------- [0:0 1:0 32 0] [15 0] 0 0
r 80.808015549 _0_ RTR  --- 56 tcp 1040 [0 0 0 0] ------- [0:0 1:0 32 0] [15 0] 0 0
s 80.808015549 _0_ RTR  --- 56 tcp 1060 [0 0 0 0] ------- [0:0 1:0 32 1] [15 0] 0 0
r 80.810002662 _0_ AGT  --- 51 ack 60 [13a 0 1 800] ------- [1:0 0:0 32 0] [12 0] 1 0
s 80.810002662 _0_ AGT  --- 57 tcp 1040 [0 0 0 0] ------- [0:0 1:0 32 0] [16 0] 0 0
r 80.810002662 _0_ RTR  --- 57 tcp 1040 [0 0 0 0] ------- [0:0 1:0 32 0] [16 0] 0 0
s 80.810002662 _0_ RTR  --- 57 tcp 1060 [0 0 0 0] ------- [0:0 1:0 32 1] [16 0] 0 0
s 80.810002662 _0_ AGT  --- 58 tcp 1040 [0 0 0 0] ------- [0:0 1:0 32 0] [17 0] 0 0
r 80.810002662 _0_ RTR  --- 58 tcp 1040 [0 0 0 0] ------- [0:0 1:0 32 0] [17 0] 0 0
s 80.810002662 _0_ RTR  --- 58 tcp 1060 [0 0 0 0] ------- [0:0 1:0 32 1] [17 0] 0 0
r 80.820088996 _1_ AGT  --- 56 tcp 1060 [13a 1 0 800] ------- [0:0 1:0 32 1] [15 0] 1 0
s 80.820088996 _1_ AGT  --- 59 ack 40 [0 0 0 0] ------- [1:0 0:0 32 0] [15 0] 0 0
r 80.820088996 _1_ RTR  --- 59 ack 40 [0 0 0 0] ------- [1:0 0:0 32 0] [15 0] 0 0
s 80.820088996 _1_ RTR  --- 59 ack 60 [0 0 0 0] ------- [1:0 0:0 32 0] [15 0] 0 0
r 80.822535330 _0_ AGT  --- 53 ack 60 [13a 0 1 800] ------- [1:0 0:0 32 0] [13 0] 1 0
s 80.822535330 _0_ AGT  --- 60 tcp 1040 [0 0 0 0] ------- [0:0 1:0 32 0] [18 0] 0 0
r 80.822535330 _0_ RTR  --- 60 tcp 1040 [0 0 0 0] ------- [0:0 1:0 32 0] [18 0] 0 0
s 80.822535330 _0_ RTR  --- 60 tcp 1060 [0 0 0 0] ------- [0:0 1:0 32 1] [18 0] 0 0
r 80.832641663 _1_ AGT  --- 57 tcp 1060 [13a 1 0 800] ------- [0:0 1:0 32 1] [16 0] 1 0
s 80.832641663 _1_ AGT  --- 61 ack 40 [0 0 0 0] ------- [1:0 0:0 32 0] [16 0] 0 0
r 80.832641663 _1_ RTR  --- 61 ack 40 [0 0 0 0] ------- [1:0 0:0 32 0] [16 0] 0 0
s 80.832641663 _1_ RTR  --- 61 ack 60 [0 0 0 0] ------- [1:0 0:0 32 0] [16 0] 0 0
r 80.835107996 _0_ AGT  --- 55 ack 60 [13a 0 1 800] ------- [1:0 0:0 32 0] [14 0] 1 0
s 80.835107996 _0_ AGT  --- 62 tcp 1040 [0 0 0 0] ------- [0:0 1:0 32 0] [19 0] 0 0
r 80.835107996 _0_ RTR  --- 62 tcp 1040 [0 0 0 0] ------- [0:0 1:0 32 0] [19 0] 0 0
s 80.835107996 _0_ RTR  --- 62 tcp 1060 [0 0 0 0] ------- [0:0 1:0 32 1] [19 0] 0 0
r 80.845214329 _1_ AGT  --- 58 tcp 1060 [13a 1 0 800] ------- [0:0 1:0 32 1] [17 0] 1 0
s 80.845214329 _1_ AGT  --- 63 ack 40 [0 0 0 0] ------- [1:0 0:0 32 0] [17 0] 0 0
r 80.845214329 _1_ RTR  --- 63 ack 40 [0 0 0 0] ------- [1:0 0:0 32 0] [17 0] 0 0
s 80.845214329 _1_ RTR  --- 63 ack 60 [0 0 0 0] ------- [1:0 0:0 32 0] [17 0] 0 0
r 80.847320661 _0_ AGT  --- 59 ack 60 [13a 0 1 800] ------- [1:0 0:0 32 0] [15 0] 1 0
s 80.847320661 _0_ AGT  --- 64 tcp 1040 [0 0 0 0] ------- [0:0 1:0 32 0] [20 0] 0 0
r 80.847320661 _0_ RTR  --- 64 tcp 1040 [0 0 0 0] ------- [0:0 1:0 32 0] [20 0] 0 0
s 80.847320661 _0_ RTR  --- 64 tcp 1060 [0 0 0 0] ------- [0:0 1:0 32 1] [20 0] 0 0
r 80.849447771 _0_ AGT  --- 61 ack 60 [13a 0 1 800] ------- [1:0 0:0 32 0] [16 0] 1 0
s 80.849447771 _0_ AGT  --- 65 tcp 1040 [0 0 0 0] ------- [0:0 1:0 32 0] [21 0] 0 0
r 80.849447771 _0_ RTR  --- 65 tcp 1040 [0 0 0 0] ------- [0:0 1:0 32 0] [21 0] 0 0
s 80.849447771 _0_ RTR  --- 65 tcp 1060 [0 0 0 0] ------- [0:0 1:0 32 1] [21 0] 0 0
r 80.851674881 _0_ AGT  --- 63 ack 60 [13a 0 1 800] ------- [1:0 0:0 32 0] [17 0] 1 0
s 80.851674881 _0_ AGT  --- 66 tcp 1040 [0 0 0 0] ------- [0:0 1:0 32 0] [22 0] 0 0
r 80.851674881 _0_ RTR  --- 66 tcp 1040 [0 0 0 0] ------- [0:0 1:0 32 0] [22 0] 0 0
s 80.851674881 _0_ RTR  --- 66 tcp 1060 [0 0 0 0] ------- [0:0 1:0 32 1] [22 0] 0 0
s 80.851674881 _0_ AGT  --- 67 tcp 1040 [0 0 0 0] ------- [0:0 1:0 32 0] [23 0] 0 0
r 80.851674881 _0_ RTR  --- 67 tcp 1040 [0 0 0 0] ------- [0:0 1:0 32 0] [23 0] 0 0
s 80.851674881 _0_ RTR  --- 67 tcp 1060 [0 0 0 0] ------- [0:0 1:0 32 1] [23 0] 0 0
r 80.861701213 _1_ AGT  --- 60 tcp 1060 [13a 1 0 800] ------- [0:0 1:0 32 1] [18 0] 1 0
s 80.861701213 _1_ AGT  --- 68 ack 40 [0 0 0 0] ------- [1:0 0:0 32 0] [18 0] 0 0
r 80.861701213 _1_ RTR  --- 68 ack 40 [0 0 0 0] ------- [1:0 0:0 32 0] [18 0] 0 0
s 80.861701213 _1_ RTR  --- 68 ack 60 [0 0 0 0] ------- [1:0 0:0 32 0] [18 0] 0 0
r 80.871788322 _1_ AGT  --- 62 tcp 1060 [13a 1 0 800] ------- [0:0 1:0 32 1] [19 0] 1 0
s 80.871788322 _1_ AGT  --- 69 ack 40 [0 0 0 0] ------- [1:0 0:0 32 0] [19 0] 0 0
r 80.871788322 _1_ RTR  --- 69 ack 40 [0 0 0 0] ------- [1:0 0:0 32 0] [19 0] 0 0
s 80.871788322 _1_ RTR  --- 69 ack 60 [0 0 0 0] ------- [1:0 0:0 32 0] [19 0] 0 0
r 80.881955430 _1_ AGT  --- 64 tcp 1060 [13a 1 0 800] ------- [0:0 1:0 32 1] [20 0] 1 0
s 80.881955430 _1_ AGT  --- 70 ack 40 [0 0 0 0] ------- [1:0 0:0 32 0] [20 0] 0 0
r 80.881955430 _1_ RTR  --- 70 ack 40 [0 0 0 0] ------- [1:0 0:0 32 0] [20 0] 0 0
s 80.881955430 _1_ RTR  --- 70 ack 60 [0 0 0 0] ------- [1:0 0:0 32 0] [20 0] 0 0
r 80.891942537 _1_ AGT  --- 65 tcp 1060 [13a 1 0 800] ------- [0:0 1:0 32 1] [21 0] 1 0
s 80.891942537 _1_ AGT  --- 71 ack 40 [0 0 0 0] ------- [1:0 0:0 32 0] [21 0] 0 0
r 80.891942537 _1_ RTR  --- 71 ack 40 [0 0 0 0] ------- [1:0 0:0 32 0] [21 0] 0 0
s 80.891942537 _1_ RTR  --- 71 ack 60 [0 0 0 0] ------- [1:0 0:0 32 0] [21 0] 0 0
r 80.894148867 _0_ AGT  --- 68 ack 60 [13a 0 1 800] ------- [1:0 0:0 32 0] [18 0] 1 0
s 80.894148867 _0_ AGT  --- 72 tcp 1040 [0 0 0 0] ------- [0:0 1:0 32 0] [24 0] 0 0
r 80.894148867 _0_ RTR  --- 72 tcp 1040 [0 0 0 0] ------- [0:0 1:0 32 0] [24 0] 0 0
s 80.894148867 _0_ RTR  --- 72 tcp 1060 [0 0 0 0] ------- [0:0 1:0 32 1] [24 0] 0 0
r 80.904315197 _1_ AGT  --- 66 tcp 1060 [13a 1 0 800] ------- [0:0 1:0 32 1] [22 0] 1 0
s 80.904315197 _1_ AGT  --- 73 ack 40 [0 0 0 0] ------- [1:0 0:0 32 0] [22 0] 0 0
r 80.904315197 _1_ RTR  --- 73 ack 40 [0 0 0 0] ------- [1:0 0:0 32 0] [22 0] 0 0
s 80.904315197 _1_ RTR  --- 73 ack 60 [0 0 0 0] ------- [1:0 0:0 32 0] [22 0] 0 0
r 80.914542303 _1_ AGT  --- 67 tcp 1060 [13a 1 0 800] ------- [0:0 1:0 32 1] [23 0] 1 0
s 80.914542303 _1_ AGT  --- 74 ack 40 [0 0 0 0] ------- [1:0 0:0 32 0] [23 0] 0 0
r 80.914542303 _1_ RTR  --- 74 ack 40 [0 0 0 0] ------- [1:0 0:0 32 0] [23 0] 0 0
s 80.914542303 _1_ RTR  --- 74 ack 60 [0 0 0 0] ------- [1:0 0:0 32 0] [23 0] 0 0
r 80.924529409 _1_ AGT  --- 72 tcp 1060 [13a 1 0 800] ------- [0:0 1:0 32 1] [24 0] 1 0
s 80.924529409 _1_ AGT  --- 75 ack 40 [0 0 0 0] ------- [1:0 0:0 32 0] [24 0] 0 0
r 80.924529409 _1_ RTR  --- 75 ack 40 [0 0 0 0] ------- [1:0 0:0 32 0] [24 0] 0 0
s 80.924529409 _1_ RTR  --- 75 ack 60 [0 0 0 0] ------- [1:0 0:0 32 0] [24 0] 0 0
r 80.926615737 _0_ AGT  --- 69 ack 60 [13a 0 1 800] ------- [1:0 0:0 32 0] [19 0] 1 0
s 80.926615737 _0_ AGT  --- 76 tcp 1040 [0 0 0 0] ------- [0:0 1:0 32 0] [25 0] 0 0
r 80.926615737 _0_ RTR  --- 76 tcp 1040 [0 0 0 0] ------- [0:0 1:0 32 0] [25 0] 0 0
s 80.926615737 _0_ RTR  --- 76 tcp 1060 [0 0 0 0] ------- [0:0 1:0 32 1] [25 0] 0 0
r 80.936642065 _1_ AGT  --- 76 tcp 1060 [13a 1 0 800] ------- [0:0 1:0 32 1] [25 0] 1 0
s 80.936642065 _1_ AGT  --- 77 ack 40 [0 0 0 0] ------- [1:0 0:0 32 0] [25 0] 0 0
r 80.936642065 _1_ RTR  --- 77 ack 40 [0 0 0 0] ------- [1:0 0:0 32 0] [25 0] 0 0
s 80.936642065 _1_ RTR  --- 77 ack 60 [0 0 0 0] ------- [1:0 0:0 32 0] [25 0] 0 0
r 80.938968393 _0_ AGT  --- 70 ack 60 [13a 0 1 800] ------- [1:0 0:0 32 0] [20 0] 1 0
s 80.938968393 _0_ AGT  --- 78 tcp 1040 [0 0 0 0] ------- [0:0 1:0 32 0] [26 0] 0 0
r 80.938968393 _0_ RTR  --- 78 tcp 1040 [0 0 0 0] ------- [0:0 1:0 32 0] [26 0] 0 0
s 80.938968393 _0_ RTR  --- 78 tcp 1060 [0 0 0 0] ------- [0:0 1:0 32 1] [26 0] 0 0
r 80.949454721 _1_ AGT  --- 78 tcp 1060 [13a 1 0 800] ------- [0:0 1:0 32 1] [26 0] 1 0
s 80.949454721 _1_ AGT  --- 79 ack 40 [0 0 0 0] ------- [1:0 0:0 32 0] [26 0] 0 0
r 80.949454721 _1_ RTR  --- 79 ack 40 [0 0 0 0] ------- [1:0 0:0 32 0] [26 0] 0 0
s 80.949454721 _1_ RTR  --- 79 ack 60 [0 0 0 0] ------- [1:0 0:0 32 0] [26 0] 0 0
r 80.951561048 _0_ AGT  --- 71 ack 60 [13a 0 1 800] ------- [1:0 0:0 32 0] [21 0] 1 0
s 80.951561048 _0_ AGT  --- 80 tcp 1040 [0 0 0 0] ------- [0:0 1:0 32 0] [27 0] 0 0
r 80.951561048 _0_ RTR  --- 80 tcp 1040 [0 0 0 0] ------- [0:0 1:0 32 0] [27 0] 0 0
s 80.951561048 _0_ RTR  --- 80 tcp 1060 [0 0 0 0] ------- [0:0 1:0 32 1] [27 0] 0 0
r 80.961587375 _1_ AGT  --- 80 tcp 1060 [13a 1 0 800] ------- [0:0 1:0 32 1] [27 0] 1 0
s 80.961587375 _1_ AGT  --- 81 ack 40 [0 0 0 0] ------- [1:0 0:0 32 0] [27 0] 0 0
r 80.961587375 _1_ RTR  --- 81 ack 40 [0 0 0 0] ------- [1:0 0:0 32 0] [27 0] 0 0
s 80.961587375 _1_ RTR  --- 81 ack 60 [0 0 0 0] ------- [1:0 0:0 32 0] [27 0] 0 0
r 80.964093702 _0_ AGT  --- 73 ack 60 [13a 0 1 800] ------- [1:0 0:0 32 0] [22 0] 1 0
s 80.964093702 _0_ AGT  --- 82 tcp 1040 [0 0 0 0] ------- [0:0 1:0 32 0] [28 0] 0 0
r 80.964093702 _0_ RTR  --- 82 tcp 1040 [0 0 0 0] ------- [0:0 1:0 32 0] [28 0] 0 0
s 80.964093702 _0_ RTR  --- 82 tcp 1060 [0 0 0 0] ------- [0:0 1:0 32 1] [28 0] 0 0
r 80.974120028 _1_ AGT  --- 82 tcp 1060 [13a 1 0 800] ------- [0:0 1:0 32 1] [28 0] 1 0
s 80.974120028 _1_ AGT  --- 83 ack 40 [0 0 0 0] ------- [1:0 0:0 32 0] [28 0] 0 0
r 80.974120028 _1_ RTR  --- 83 ack 40 [0 0 0 0] ------- [1:0 0:0 32 0] [28 0] 0 0
s 80.974120028 _1_ RTR  --- 83 ack 60 [0 0 0 0] ------- [1:0 0:0 32 0] [28 0] 0 0
r 80.976126354 _0_ AGT  --- 74 ack 60 [13a 0 1 800] ------- [1:0 0:0 32 0] [23 0] 1 0
s 80.976126354 _0_ AGT  --- 84 tcp 1040 [0 0 0 0] ------- [0:0 1:0 32 0] [29 0] 0 0
r 80.976126354 _0_ RTR  --- 84 tcp 1040 [0 0 0 0] ------- [0:0 1:0 32 0] [29 0] 0 0
s 80.976126354 _0_ RTR  --- 84 tcp 1060 [0 0 0 0] ------- [0:0 1:0 32 1] [29 0] 0 0
s 80.976126354 _0_ AGT  --- 85 tcp 1040 [0 0 0 0] ------- [0:0 1:0 32 0] [30 0] 0 0
r 80.976126354 _0_ RTR  --- 85 tcp 1040 [0 0 0 0] ------- [0:0 1:0 32 0] [30 0] 0 0
s 80.976126354 _0_ RTR  --- 85 tcp 1060 [0 0 0 0] ------- [0:0 1:0 32 1] [30 0] 0 0
r 80.978473455 _0_ AGT  --- 75 ack 60 [13a 0 1 800] ------- [1:0 0:0 32 0] [24 0] 1 0
s 80.978473455 _0_ AGT  --- 86 tcp 1040 [0 0 0 0] ------- [0:0 1:0 32 0] [31 0] 0 0
r 80.978473455 _0_ RTR  --- 86 tcp 1040 [0 0 0 0] ------- [0:0 1:0 32 0] [31 0] 0 0
s 80.978473455 _0_ RTR  --- 86 tcp 1060 [0 0 0 0] ------- [0:0 1:0 32 1] [31 0] 0 0
r 80.980460556 _0_ AGT  --- 77 ack 60 [13a 0 1 800] ------- [1:0 0:0 32 0] [25 0] 1 0
s 80.980460556 _0_ AGT  --- 87 tcp 1040 [0 0 0 0] ------- [0:0 1:0 32 0] [32 0] 0 0
r 80.980460556 _0_ RTR  --- 87 tcp 1040 [0 0 0 0] ------- [0:0 1:0 32 0] [32 0] 0 0
s 80.980460556 _0_ RTR  --- 87 tcp 1060 [0 0 0 0] ------- [0:0 1:0 32 1] [32 0] 0 0
r 80.982527657 _0_ AGT  --- 79 ack 60 [13a 0 1 800] ------- [1:0 0:0 32 0] [26 0] 1 0
s 80.982527657 _0_ AGT  --- 88 tcp 1040 [0 0 0 0] ------- [0:0 1:0 32 0] [33 0] 0 0
r 80.982527657 _0_ RTR  --- 88 tcp 1040 [0 0 0 0] ------- [0:0 1:0 32 0] [33 0] 0 0
s 80.982527657 _0_ RTR  --- 88 tcp 1060 [0 0 0 0] ------- [0:0 1:0 32 1] [33 0] 0 0
r 80.992553983 _1_ AGT  --- 84 tcp 1060 [13a 1 0 800] ------- [0:0 1:0 32 1] [29 0] 1 0
s 80.992553983 _1_ AGT  --- 89 ack 40 [0 0 0 0] ------- [1:0 0:0 32 0] [29 0] 0 0
r 80.992553983 _1_ RTR  --- 89 ack 40 [0 0 0 0] ------- [1:0 0:0 32 0] [29 0] 0 0
s 80.992553983 _1_ RTR  --- 89 ack 60 [0 0 0 0] ------- [1:0 0:0 32 0] [29 0] 0 0
r 81.002841083 _1_ AGT  --- 85 tcp 1060 [13a 1 0 800] ------- [0:0 1:0 32 1] [30 0] 1 0
s 81.002841083 _1_ AGT  --- 90 ack 40 [0 0 0 0] ------- [1:0 0:0 32 0] [30 0] 0 0
r 81.002841083 _1_ RTR  --- 90 ack 40 [0 0 0 0] ------- [1:0 0:0 32 0] [30 0] 0 0
s 81.002841083 _1_ RTR  --- 90 ack 60 [0 0 0 0] ------- [1:0 0:0 32 0] [30 0] 0 0
r 81.005067407 _0_ AGT  --- 81 ack 60 [13a 0 1 800] ------- [1:0 0:0 32 0] [27 0] 1 0
s 81.005067407 _0_ AGT  --- 91 tcp 1040 [0 0 0 0] ------- [0:0 1:0 32 0] [34 0] 0 0
r 81.005067407 _0_ RTR  --- 91 tcp 1040 [0 0 0 0] ------- [0:0 1:0 32 0] [34 0] 0 0
s 81.005067407 _0_ RTR  --- 91 tcp 1060 [0 0 0 0] ------- [0:0 1:0 32 1] [34 0] 0 0
r 81.015173732 _1_ AGT  --- 86 tcp 1060 [13a 1 0 800] ------- [0:0 1:0 32 1] [31 0] 1 0
s 81.015173732 _1_ AGT  --- 92 ack 40 [0 0 0 0] ------- [1:0 0:0 32 0] [31 0] 0 0
r 81.015173732 _1_ RTR  --- 92 ack 40 [0 0 0 0] ------- [1:0 0:0 32 0] [31 0] 0 0
s 81.015173732 _1_ RTR  --- 92 ack 60 [0 0 0 0] ------- [1:0 0:0 32 0] [31 0] 0 0
r 81.017380056 _0_ AGT  --- 83 ack 60 [13a 0 1 800] ------- [1:0 0:0 32 0] [28 0] 1 0
s 81.017380056 _0_ AGT  --- 93 tcp 1040 [0 0 0 0] ------- [0:0 1:0 32 0] [35 0] 0 0
r 81.017380056 _0_ RTR  --- 93 tcp 1040 [0 0 0 0] ------- [0:0 1:0 32 0] [35 0] 0 0
s 81.017380056 _0_ RTR  --- 93 tcp 1060 [0 0 0 0] ------- [0:0 1:0 32 1] [35 0] 0 0
r 81.019407154 _0_ AGT  --- 89 ack 60 [13a 0 1 800] ------- [1:0 0:0 32 0] [29 0] 1 0
s 81.019407154 _0_ AGT  --- 94 tcp 1040 [0 0 0 0] ------- [0:0 1:0 32 0] [36 0] 0 0
r 81.019407154 _0_ RTR  --- 94 tcp 1040 [0 0 0 0] ------- [0:0 1:0 32 0] [36 0] 0 0
s 81.019407154 _0_ RTR  --- 94 tcp 1060 [0 0 0 0] ------- [0:0 1:0 32 1] [36 0] 0 0
r 81.029633478 _1_ AGT  --- 87 tcp 1060 [13a 1 0 800] ------- [0:0 1:0 32 1] [32 0] 1 0
s 81.029633478 _1_ AGT  --- 95 ack 40 [0 0 0 0] ------- [1:0 0:0 32 0] [32 0] 0 0
r 81.029633478 _1_ RTR  --- 95 ack 40 [0 0 0 0] ------- [1:0 0:0 32 0] [32 0] 0 0
s 81.029633478 _1_ RTR  --- 95 ack 60 [0 0 0 0] ------- [1:0 0:0 32 0] [32 0] 0 0
r 81.031919801 _0_ AGT  --- 90 ack 60 [13a 0 1 800] ------- [1:0 0:0 32 0] [30 0] 1 0
s 81.031919801 _0_ AGT  --- 96 tcp 1040 [0 0 0 0] ------- [0:0 1:0 32 0] [37 0] 0 0
r 81.031919801 _0_ RTR  --- 96 tcp 1040 [0 0 0 0] ------- [0:0 1:0 32 0] [37 0] 0 0
s 81.031919801 _0_ RTR  --- 96 tcp 1060 [0 0 0 0] ------- [0:0 1:0 32 1] [37 0] 0 0
r 81.033986898 _0_ AGT  --- 92 ack 60 [13a 0 1 800] ------- [1:0 0:0 32 0] [31 0] 1 0
s 81.033986898 _0_ AGT  --- 97 tcp 1040 [0 0 0 0] ------- [0:0 1:0 32 0] [38 0] 0 0
r 81.033986898 _0_ RTR  --- 97 tcp 1040 [0 0 0 0] ------- [0:0 1:0 32 0] [38 0] 0 0
s 81.033986898 _0_ RTR  --- 97 tcp 1060 [0 0 0 0] ------- [0:0 1:0 32 1] [38 0] 0 0
s 81.033986898 _0_ AGT  --- 98 tcp 1040 [0 0 0 0] ------- [0:0 1:0 32 0] [39 0] 0 0
r 81.033986898 _0_ RTR  --- 98 tcp 1040 [0 0 0 0] ------- [0:0 1:0 32 0] [39 0] 0 0
s 81.033986898 _0_ RTR  --- 98 tcp 1060 [0 0 0 0] ------- [0:0 1:0 32 1] [39 0] 0 0
r 81.044113221 _1_ AGT  --- 88 tcp 1060 [13a 1 0 800] ------- [0:0 1:0 32 1] [33 0] 1 0
s 81.044113221 _1_ AGT  --- 99 ack 40 [0 0 0 0] ------- [1:0 0:0 32 0] [33 0] 0 0
r 81.044113221 _1_ RTR  --- 99 ack 40 [0 0 0 0] ------- [1:0 0:0 32 0] [33 0] 0 0
s 81.044113221 _1_ RTR  --- 99 ack 60 [0 0 0 0] ------- [1:0 0:0 32 0] [33 0] 0 0
r 81.054100318 _1_ AGT  --- 91 tcp 1060 [13a 1 0 800] ------- [0:0 1:0 32 1] [34 0] 1 0
s 81.054100318 _1_ AGT  --- 100 ack 40 [0 0 0 0] ------- [1:0 0:0 32 0] [34 0] 0 0
r 81.054100318 _1_ RTR  --- 100 ack 40 [0 0 0 0] ------- [1:0 0:0 32 0] [34 0] 0 0
s 81.054100318 _1_ RTR  --- 100 ack 60 [0 0 0 0] ------- [1:0 0:0 32 0] [34 0] 0 0
r 81.056566640 _0_ AGT  --- 95 ack 60 [13a 0 1 800] ------- [1:0 0:0 32 0] [32 0] 1 0
s 81.056566640 _0_ AGT  --- 101 tcp 1040 [0 0 0 0] ------- [0:0 1:0 32 0] [40 0] 0 0
r 81.056566640 _0_ RTR  --- 101 tcp 1040 [0 0 0 0] ------- [0:0 1:0 32 0] [40 0] 0 0
s 81.056566640 _0_ RTR  --- 101 tcp 1060 [0 0 0 0] ------- [0:0 1:0 32 1] [40 0] 0 0
r 81.066652962 _1_ AGT  --- 93 tcp 1060 [13a 1 0 800] ------- [0:0 1:0 32 1] [35 0] 1 0
s 81.066652962 _1_ AGT  --- 102 ack 40 [0 0 0 0] ------- [1:0 0:0 32 0] [35 0] 0 0
r 81.066652962 _1_ RTR  --- 102 ack 40 [0 0 0 0] ------- [1:0 0:0 32 0] [35 0] 0 0
s 81.066652962 _1_ RTR  --- 102 ack 60 [0 0 0 0] ------- [1:0 0:0 32 0] [35 0] 0 0
r 81.068879283 _0_ AGT  --- 99 ack 60 [13a 0 1 800] ------- [1:0 0:0 32 0] [33 0] 1 0
s 81.068879283 _0_ AGT  --- 103 tcp 1040 [0 0 0 0] ------- [0:0 1:0 32 0] [41 0] 0 0
r 81.068879283 _0_ RTR  --- 103 tcp 1040 [0 0 0 0] ------- [0:0 1:0 32 0] [41 0] 0 0
s 81.068879283 _0_ RTR  --- 103 tcp 1060 [0 0 0 0] ------- [0:0 1:0 32 1] [41 0] 0 0
r 81.070926378 _0_ AGT  --- 100 ack 60 [13a 0 1 800] ------- [1:0 0:0 32 0] [34 0] 1 0
s 81.070926378 _0_ AGT  --- 104 tcp 1040 [0 0 0 0] ------- [0:0 1:0 32 0] [42 0] 0 0
r 81.070926378 _0_ RTR  --- 104 tcp 1040 [0 0 0 0] ------- [0:0 1:0 32 0] [42 0] 0 0